ITEM: TIMESTEP
0
ITEM: NUMBER OF ENTRIES
2788
ITEM: BOX BOUNDS xy xz yz pp pp pp
0.0000000000000000e+00 5.0000000000000036e+01 0.0000000000000000e+00
0.0000000000000000e+00 5.1961524227066349e+01 0.0000000000000000e+00
-2.5000000000000017e-01 2.5000000000000017e-01 0.0000000000000000e+00
ITEM: ENTRIES index c_1[1] c_1[2] c_2[1] c_2[2] c_2[3] c_2[4] c_2[5] 
1 28 30 1 4.26326e-14 -24 0 0 
2 28 129 1 1.06581e-14 -12 -20.7846 0 
3 29 28 1 1.06581e-14 12 -20.7846 0 
4 34 36 1 8.52651e-14 -24 0 0 
5 34 135 1 3.19744e-14 -12 -20.7846 0 
6 35 34 1 3.19744e-14 12 -20.7846 0 
7 42 44 1 8.52651e-14 -24 0 0 
8 42 143 1 3.19744e-14 -12 -20.7846 0 
9 43 42 1 3.19744e-14 12 -20.7846 0 
10 50 52 1 8.52651e-14 -24 0 0 
11 50 151 1 3.19744e-14 -12 -20.7846 0 
12 51 50 1 3.19744e-14 12 -20.7846 0 
13 54 56 1 8.52651e-14 -24 0 0 
14 55 57 1 8.52651e-14 -24 0 0 
15 55 56 1 3.19744e-14 -12 -20.7846 0 
16 56 155 1 3.19744e-14 12 -20.7846 0 
17 60 62 1 8.52651e-14 -24 0 0 
18 60 161 1 3.19744e-14 -12 -20.7846 0 
19 61 60 1 3.19744e-14 12 -20.7846 0 
20 128 130 1 4.26326e-14 -24 0 0 
21 128 229 1 1.86517e-14 -12 -20.7846 0 
22 129 128 1 5.32907e-15 12 -20.7846 0 
23 134 136 1 8.52651e-14 -24 0 0 
24 134 235 1 3.9968e-14 -12 -20.7846 0 
25 135 134 1 2.66454e-14 12 -20.7846 0 
26 142 144 1 8.52651e-14 -24 0 0 
27 142 243 1 3.9968e-14 -12 -20.7846 0 
28 143 142 1 2.66454e-14 12 -20.7846 0 
29 150 152 1 8.52651e-14 -24 0 0 
30 150 251 1 3.9968e-14 -12 -20.7846 0 
31 151 150 1 2.66454e-14 12 -20.7846 0 
32 154 156 1 8.52651e-14 -24 0 0 
33 155 157 1 8.52651e-14 -24 0 0 
34 155 156 1 2.66454e-14 -12 -20.7846 0 
35 156 255 1 3.9968e-14 12 -20.7846 0 
36 160 162 1 8.52651e-14 -24 0 0 
37 160 261 1 3.9968e-14 -12 -20.7846 0 
38 161 160 1 2.66454e-14 12 -20.7846 0 
39 228 230 1 4.26326e-14 -24 0 0 
40 229 228 1 1.86517e-14 12 -20.7846 0 
41 234 236 1 8.52651e-14 -24 0 0 
42 234 335 1 1.33227e-14 -12 -20.7846 0 
43 235 234 1 3.9968e-14 12 -20.7846 0 
44 242 244 1 8.52651e-14 -24 0 0 
45 242 343 1 1.33227e-14 -12 -20.7846 0 
46 243 242 1 3.9968e-14 12 -20.7846 0 
47 250 252 1 8.52651e-14 -24 0 0 
48 250 351 1 1.33227e-14 -12 -20.7846 0 
49 251 250 1 3.9968e-14 12 -20.7846 0 
50 254 256 1 8.52651e-14 -24 0 0 
51 255 257 1 8.52651e-14 -24 0 0 
52 255 256 1 3.9968e-14 -12 -20.7846 0 
53 256 355 1 1.33227e-14 12 -20.7846 0 
54 260 262 1 8.52651e-14 -24 0 0 
55 260 361 1 1.33227e-14 -12 -20.7846 0 
56 261 260 1 3.9968e-14 12 -20.7846 0 
57 302 401 1 2.66454e-15 12 -20.7846 0 
58 302 403 1 2.66454e-15 -12 -20.7846 0 
59 304 405 1 2.66454e-15 -12 -20.7846 0 
60 308 407 1 5.32907e-15 12 -20.7846 0 
61 310 409 1 5.32907e-15 12 -20.7846 0 
62 312 411 1 5.32907e-15 12 -20.7846 0 
63 314 413 1 5.32907e-15 12 -20.7846 0 
64 314 415 1 5.32907e-15 -12 -20.7846 0 
65 316 417 1 5.32907e-15 -12 -20.7846 0 
66 318 417 1 5.32907e-15 12 -20.7846 0 
67 318 419 1 5.32907e-15 -12 -20.7846 0 
68 320 421 1 5.32907e-15 -12 -20.7846 0 
69 322 421 1 5.32907e-15 12 -20.7846 0 
70 322 423 1 5.32907e-15 -12 -20.7846 0 
71 324 423 1 5.32907e-15 12 -20.7846 0 
72 326 425 1 5.32907e-15 12 -20.7846 0 
73 326 427 1 5.32907e-15 -12 -20.7846 0 
74 328 330 1 4.26326e-14 -24 0 0 
75 328 429 1 2.66454e-14 -12 -20.7846 0 
76 329 328 1 7.99361e-15 12 -20.7846 0 
77 330 429 1 5.32907e-15 12 -20.7846 0 
78 332 431 1 5.32907e-15 12 -20.7846 0 
79 332 433 1 5.32907e-15 -12 -20.7846 0 
80 334 336 1 8.52651e-14 -24 0 0 
81 334 435 1 4.79616e-14 -12 -20.7846 0 
82 335 334 1 2.93099e-14 12 -20.7846 0 
83 336 435 1 5.32907e-15 12 -20.7846 0 
84 336 437 1 5.32907e-15 -12 -20.7846 0 
85 338 437 1 5.32907e-15 12 -20.7846 0 
86 340 439 1 5.32907e-15 12 -20.7846 0 
87 340 441 1 5.32907e-15 -12 -20.7846 0 
88 342 344 1 8.52651e-14 -24 0 0 
89 342 443 1 4.79616e-14 -12 -20.7846 0 
90 343 342 1 2.93099e-14 12 -20.7846 0 
91 344 443 1 5.32907e-15 12 -20.7846 0 
92 344 445 1 5.32907e-15 -12 -20.7846 0 
93 346 445 1 5.32907e-15 12 -20.7846 0 
94 346 447 1 5.32907e-15 -12 -20.7846 0 
95 348 447 1 5.32907e-15 12 -20.7846 0 
96 350 352 1 8.52651e-14 -24 0 0 
97 350 451 1 4.79616e-14 -12 -20.7846 0 
98 351 350 1 2.93099e-14 12 -20.7846 0 
99 352 451 1 5.32907e-15 12 -20.7846 0 
100 352 453 1 5.32907e-15 -12 -20.7846 0 
101 354 356 1 8.52651e-14 -24 0 0 
102 354 455 1 5.32907e-15 -12 -20.7846 0 
103 355 357 1 8.52651e-14 -24 0 0 
104 355 356 1 2.93099e-14 -12 -20.7846 0 
105 356 455 1 4.79616e-14 12 -20.7846 0 
106 356 457 1 5.32907e-15 -12 -20.7846 0 
107 358 457 1 5.32907e-15 12 -20.7846 0 
108 358 459 1 5.32907e-15 -12 -20.7846 0 
109 360 362 1 8.52651e-14 -24 0 0 
110 360 461 1 4.79616e-14 -12 -20.7846 0 
111 361 360 1 2.93099e-14 12 -20.7846 0 
112 362 461 1 5.32907e-15 12 -20.7846 0 
113 362 463 1 5.32907e-15 -12 -20.7846 0 
114 364 463 1 5.32907e-15 12 -20.7846 0 
115 364 465 1 5.32907e-15 -12 -20.7846 0 
116 366 465 1 5.32907e-15 12 -20.7846 0 
117 401 402 1 2.66454e-15 -12 -20.7846 0 
118 403 402 1 2.66454e-15 12 -20.7846 0 
119 405 404 1 2.66454e-15 12 -20.7846 0 
120 407 408 1 5.32907e-15 -12 -20.7846 0 
121 409 410 1 5.32907e-15 -12 -20.7846 0 
122 411 412 1 5.32907e-15 -12 -20.7846 0 
123 413 414 1 5.32907e-15 -12 -20.7846 0 
124 415 414 1 5.32907e-15 12 -20.7846 0 
125 417 416 1 5.32907e-15 12 -20.7846 0 
126 417 418 1 5.32907e-15 -12 -20.7846 0 
127 419 418 1 5.32907e-15 12 -20.7846 0 
128 421 420 1 5.32907e-15 12 -20.7846 0 
129 421 422 1 5.32907e-15 -12 -20.7846 0 
130 423 422 1 5.32907e-15 12 -20.7846 0 
131 423 424 1 5.32907e-15 -12 -20.7846 0 
132 425 426 1 5.32907e-15 -12 -20.7846 0 
133 427 426 1 5.32907e-15 12 -20.7846 0 
134 428 430 1 4.26326e-14 -24 0 0 
135 428 529 1 7.99361e-15 -12 -20.7846 0 
136 429 428 1 2.66454e-14 12 -20.7846 0 
137 429 430 1 5.32907e-15 -12 -20.7846 0 
138 431 432 1 5.32907e-15 -12 -20.7846 0 
139 433 432 1 5.32907e-15 12 -20.7846 0 
140 434 436 1 8.52651e-14 -24 0 0 
141 434 535 1 2.93099e-14 -12 -20.7846 0 
142 435 434 1 4.79616e-14 12 -20.7846 0 
143 435 436 1 5.32907e-15 -12 -20.7846 0 
144 437 436 1 5.32907e-15 12 -20.7846 0 
145 437 438 1 5.32907e-15 -12 -20.7846 0 
146 439 440 1 5.32907e-15 -12 -20.7846 0 
147 441 440 1 5.32907e-15 12 -20.7846 0 
148 442 444 1 8.52651e-14 -24 0 0 
149 442 543 1 2.93099e-14 -12 -20.7846 0 
150 443 442 1 4.79616e-14 12 -20.7846 0 
151 443 444 1 5.32907e-15 -12 -20.7846 0 
152 445 444 1 5.32907e-15 12 -20.7846 0 
153 445 446 1 5.32907e-15 -12 -20.7846 0 
154 447 446 1 5.32907e-15 12 -20.7846 0 
155 447 448 1 5.32907e-15 -12 -20.7846 0 
156 450 452 1 8.52651e-14 -24 0 0 
157 450 551 1 2.93099e-14 -12 -20.7846 0 
158 451 450 1 4.79616e-14 12 -20.7846 0 
159 451 452 1 5.32907e-15 -12 -20.7846 0 
160 453 452 1 5.32907e-15 12 -20.7846 0 
161 454 456 1 8.52651e-14 -24 0 0 
162 455 457 1 8.52651e-14 -24 0 0 
163 455 454 1 5.32907e-15 12 -20.7846 0 
164 455 456 1 4.79616e-14 -12 -20.7846 0 
165 456 555 1 2.93099e-14 12 -20.7846 0 
166 457 456 1 5.32907e-15 12 -20.7846 0 
167 457 458 1 5.32907e-15 -12 -20.7846 0 
168 459 458 1 5.32907e-15 12 -20.7846 0 
169 460 462 1 8.52651e-14 -24 0 0 
170 460 561 1 2.93099e-14 -12 -20.7846 0 
171 461 460 1 4.79616e-14 12 -20.7846 0 
172 461 462 1 5.32907e-15 -12 -20.7846 0 
173 463 462 1 5.32907e-15 12 -20.7846 0 
174 463 464 1 5.32907e-15 -12 -20.7846 0 
175 465 464 1 5.32907e-15 12 -20.7846 0 
176 465 466 1 5.32907e-15 -12 -20.7846 0 
177 528 530 1 4.26326e-14 -24 0 0 
178 528 629 1 7.99361e-15 -12 -20.7846 0 
179 534 536 1 8.52651e-14 -24 0 0 
180 534 635 1 2.93099e-14 -12 -20.7846 0 
181 542 544 1 8.52651e-14 -24 0 0 
182 542 643 1 2.93099e-14 -12 -20.7846 0 
183 550 552 1 8.52651e-14 -24 0 0 
184 550 651 1 2.93099e-14 -12 -20.7846 0 
185 554 556 1 8.52651e-14 -24 0 0 
186 555 557 1 8.52651e-14 -24 0 0 
187 556 655 1 2.93099e-14 12 -20.7846 0 
188 560 562 1 8.52651e-14 -24 0 0 
189 560 661 1 2.93099e-14 -12 -20.7846 0 
190 601 700 1 1.59872e-14 12 -20.7846 0 
191 601 602 1 2.13163e-14 -12 -20.7846 0 
192 603 602 1 2.13163e-14 12 -20.7846 0 
193 603 604 1 1.86517e-14 -12 -20.7846 0 
194 605 604 1 2.13163e-14 12 -20.7846 0 
195 605 606 1 1.86517e-14 -12 -20.7846 0 
196 607 606 1 1.86517e-14 12 -20.7846 0 
197 607 608 1 2.39808e-14 -12 -20.7846 0 
198 609 608 1 1.86517e-14 12 -20.7846 0 
199 609 610 1 2.39808e-14 -12 -20.7846 0 
200 611 610 1 1.33227e-14 12 -20.7846 0 
201 611 612 1 2.39808e-14 -12 -20.7846 0 
202 613 612 1 1.33227e-14 12 -20.7846 0 
203 613 614 1 2.39808e-14 -12 -20.7846 0 
204 615 614 1 2.39808e-14 12 -20.7846 0 
205 615 616 1 1.33227e-14 -12 -20.7846 0 
206 617 616 1 2.39808e-14 12 -20.7846 0 
207 617 618 1 2.39808e-14 -12 -20.7846 0 
208 619 618 1 2.39808e-14 12 -20.7846 0 
209 619 620 1 2.66454e-15 -12 -20.7846 0 
210 621 620 1 2.39808e-14 12 -20.7846 0 
211 621 622 1 2.39808e-14 -12 -20.7846 0 
212 623 622 1 2.39808e-14 12 -20.7846 0 
213 623 624 1 2.39808e-14 -12 -20.7846 0 
214 625 624 1 2.66454e-15 12 -20.7846 0 
215 625 626 1 2.39808e-14 -12 -20.7846 0 
216 627 626 1 2.39808e-14 12 -20.7846 0 
217 627 628 1 2.66454e-15 -12 -20.7846 0 
218 628 630 1 4.26326e-14 -24 0 0 
219 629 628 1 4.52971e-14 12 -20.7846 0 
220 629 630 1 2.39808e-14 -12 -20.7846 0 
221 631 630 1 2.66454e-15 12 -20.7846 0 
222 631 632 1 2.39808e-14 -12 -20.7846 0 
223 633 632 1 2.39808e-14 12 -20.7846 0 
224 634 636 1 8.52651e-14 -24 0 0 
225 635 634 1 6.66134e-14 12 -20.7846 0 
226 635 636 1 2.39808e-14 -12 -20.7846 0 
227 637 636 1 2.39808e-14 12 -20.7846 0 
228 637 638 1 2.39808e-14 -12 -20.7846 0 
229 639 640 1 2.39808e-14 -12 -20.7846 0 
230 641 640 1 2.39808e-14 12 -20.7846 0 
231 642 644 1 8.52651e-14 -24 0 0 
232 643 642 1 6.66134e-14 12 -20.7846 0 
233 643 644 1 2.39808e-14 -12 -20.7846 0 
234 645 644 1 2.39808e-14 12 -20.7846 0 
235 645 646 1 2.39808e-14 -12 -20.7846 0 
236 647 646 1 2.39808e-14 12 -20.7846 0 
237 647 648 1 2.39808e-14 -12 -20.7846 0 
238 650 652 1 8.52651e-14 -24 0 0 
239 651 650 1 6.66134e-14 12 -20.7846 0 
240 651 652 1 2.39808e-14 -12 -20.7846 0 
241 653 652 1 2.39808e-14 12 -20.7846 0 
242 654 656 1 8.52651e-14 -24 0 0 
243 655 657 1 8.52651e-14 -24 0 0 
244 655 654 1 2.39808e-14 12 -20.7846 0 
245 655 656 1 6.66134e-14 -12 -20.7846 0 
246 657 656 1 2.39808e-14 12 -20.7846 0 
247 657 658 1 2.39808e-14 -12 -20.7846 0 
248 659 658 1 2.39808e-14 12 -20.7846 0 
249 660 662 1 8.52651e-14 -24 0 0 
250 661 660 1 6.66134e-14 12 -20.7846 0 
251 661 662 1 2.39808e-14 -12 -20.7846 0 
252 663 662 1 2.39808e-14 12 -20.7846 0 
253 663 664 1 2.39808e-14 -12 -20.7846 0 
254 665 664 1 2.39808e-14 12 -20.7846 0 
255 665 666 1 2.39808e-14 -12 -20.7846 0 
256 701 800 1 1.59872e-14 12 -20.7846 0 
257 701 702 1 2.13163e-14 -12 -20.7846 0 
258 703 702 1 2.13163e-14 12 -20.7846 0 
259 703 704 1 1.86517e-14 -12 -20.7846 0 
260 705 704 1 2.13163e-14 12 -20.7846 0 
261 705 706 1 1.86517e-14 -12 -20.7846 0 
262 707 706 1 1.86517e-14 12 -20.7846 0 
263 707 708 1 2.39808e-14 -12 -20.7846 0 
264 709 708 1 1.86517e-14 12 -20.7846 0 
265 709 710 1 2.39808e-14 -12 -20.7846 0 
266 711 710 1 1.33227e-14 12 -20.7846 0 
267 711 712 1 2.39808e-14 -12 -20.7846 0 
268 713 712 1 1.33227e-14 12 -20.7846 0 
269 713 714 1 2.39808e-14 -12 -20.7846 0 
270 715 714 1 2.39808e-14 12 -20.7846 0 
271 715 716 1 1.33227e-14 -12 -20.7846 0 
272 717 716 1 2.39808e-14 12 -20.7846 0 
273 717 718 1 2.39808e-14 -12 -20.7846 0 
274 719 718 1 2.39808e-14 12 -20.7846 0 
275 719 720 1 2.66454e-15 -12 -20.7846 0 
276 721 720 1 2.39808e-14 12 -20.7846 0 
277 721 722 1 2.39808e-14 -12 -20.7846 0 
278 723 722 1 2.39808e-14 12 -20.7846 0 
279 723 724 1 2.39808e-14 -12 -20.7846 0 
280 725 724 1 2.66454e-15 12 -20.7846 0 
281 725 726 1 2.39808e-14 -12 -20.7846 0 
282 727 726 1 2.39808e-14 12 -20.7846 0 
283 727 728 1 2.66454e-15 -12 -20.7846 0 
284 728 730 1 4.26326e-14 -24 0 0 
285 728 829 1 7.99361e-15 -12 -20.7846 0 
286 729 728 1 4.52971e-14 12 -20.7846 0 
287 729 730 1 2.39808e-14 -12 -20.7846 0 
288 731 730 1 2.66454e-15 12 -20.7846 0 
289 731 732 1 2.39808e-14 -12 -20.7846 0 
290 733 732 1 2.39808e-14 12 -20.7846 0 
291 734 736 1 8.52651e-14 -24 0 0 
292 734 835 1 2.93099e-14 -12 -20.7846 0 
293 735 734 1 6.66134e-14 12 -20.7846 0 
294 735 736 1 2.39808e-14 -12 -20.7846 0 
295 737 736 1 2.39808e-14 12 -20.7846 0 
296 737 738 1 2.39808e-14 -12 -20.7846 0 
297 739 740 1 2.39808e-14 -12 -20.7846 0 
298 741 740 1 2.39808e-14 12 -20.7846 0 
299 742 744 1 8.52651e-14 -24 0 0 
300 742 843 1 2.93099e-14 -12 -20.7846 0 
301 743 742 1 6.66134e-14 12 -20.7846 0 
302 743 744 1 2.39808e-14 -12 -20.7846 0 
303 745 744 1 2.39808e-14 12 -20.7846 0 
304 745 746 1 2.39808e-14 -12 -20.7846 0 
305 747 746 1 2.39808e-14 12 -20.7846 0 
306 747 748 1 2.39808e-14 -12 -20.7846 0 
307 750 752 1 8.52651e-14 -24 0 0 
308 750 851 1 2.93099e-14 -12 -20.7846 0 
309 751 750 1 6.66134e-14 12 -20.7846 0 
310 751 752 1 2.39808e-14 -12 -20.7846 0 
311 753 752 1 2.39808e-14 12 -20.7846 0 
312 754 756 1 8.52651e-14 -24 0 0 
313 755 757 1 8.52651e-14 -24 0 0 
314 755 754 1 2.39808e-14 12 -20.7846 0 
315 755 756 1 6.66134e-14 -12 -20.7846 0 
316 756 855 1 2.93099e-14 12 -20.7846 0 
317 757 756 1 2.39808e-14 12 -20.7846 0 
318 757 758 1 2.39808e-14 -12 -20.7846 0 
319 759 758 1 2.39808e-14 12 -20.7846 0 
320 760 762 1 8.52651e-14 -24 0 0 
321 760 861 1 2.93099e-14 -12 -20.7846 0 
322 761 760 1 6.66134e-14 12 -20.7846 0 
323 761 762 1 2.39808e-14 -12 -20.7846 0 
324 763 762 1 2.39808e-14 12 -20.7846 0 
325 763 764 1 2.39808e-14 -12 -20.7846 0 
326 765 764 1 2.39808e-14 12 -20.7846 0 
327 765 766 1 2.39808e-14 -12 -20.7846 0 
328 802 901 1 5.86198e-14 12 -20.7846 0 
329 802 903 1 5.86198e-14 -12 -20.7846 0 
330 804 903 1 5.59552e-14 12 -20.7846 0 
331 804 905 1 5.86198e-14 -12 -20.7846 0 
332 806 905 1 5.59552e-14 12 -20.7846 0 
333 806 907 1 5.59552e-14 -12 -20.7846 0 
334 808 907 1 6.12843e-14 12 -20.7846 0 
335 808 909 1 5.59552e-14 -12 -20.7846 0 
336 810 909 1 6.12843e-14 12 -20.7846 0 
337 810 911 1 5.06262e-14 -12 -20.7846 0 
338 812 911 1 6.12843e-14 12 -20.7846 0 
339 812 913 1 5.06262e-14 -12 -20.7846 0 
340 814 913 1 6.12843e-14 12 -20.7846 0 
341 814 915 1 6.12843e-14 -12 -20.7846 0 
342 816 915 1 5.06262e-14 12 -20.7846 0 
343 816 917 1 6.12843e-14 -12 -20.7846 0 
344 818 917 1 6.12843e-14 12 -20.7846 0 
345 818 919 1 6.12843e-14 -12 -20.7846 0 
346 820 919 1 3.9968e-14 12 -20.7846 0 
347 820 921 1 6.12843e-14 -12 -20.7846 0 
348 822 921 1 6.12843e-14 12 -20.7846 0 
349 822 923 1 6.12843e-14 -12 -20.7846 0 
350 824 923 1 6.12843e-14 12 -20.7846 0 
351 824 925 1 3.9968e-14 -12 -20.7846 0 
352 826 925 1 6.12843e-14 12 -20.7846 0 
353 826 927 1 6.12843e-14 -12 -20.7846 0 
354 828 830 1 4.26326e-14 -24 0 0 
355 828 927 1 3.9968e-14 12 -20.7846 0 
356 828 929 1 8.26006e-14 -12 -20.7846 0 
357 830 929 1 6.12843e-14 12 -20.7846 0 
358 830 931 1 3.9968e-14 -12 -20.7846 0 
359 832 931 1 6.12843e-14 12 -20.7846 0 
360 832 933 1 6.12843e-14 -12 -20.7846 0 
361 834 836 1 8.52651e-14 -24 0 0 
362 834 933 1 1.86517e-14 12 -20.7846 0 
363 834 935 1 1.03917e-13 -12 -20.7846 0 
364 836 935 1 6.12843e-14 12 -20.7846 0 
365 836 937 1 6.12843e-14 -12 -20.7846 0 
366 838 937 1 6.12843e-14 12 -20.7846 0 
367 838 939 1 1.86517e-14 -12 -20.7846 0 
368 840 939 1 6.12843e-14 12 -20.7846 0 
369 840 941 1 6.12843e-14 -12 -20.7846 0 
370 842 844 1 8.52651e-14 -24 0 0 
371 842 941 1 1.86517e-14 12 -20.7846 0 
372 842 943 1 1.03917e-13 -12 -20.7846 0 
373 844 943 1 6.12843e-14 12 -20.7846 0 
374 844 945 1 6.12843e-14 -12 -20.7846 0 
375 846 945 1 6.12843e-14 12 -20.7846 0 
376 846 947 1 6.12843e-14 -12 -20.7846 0 
377 848 947 1 6.12843e-14 12 -20.7846 0 
378 848 949 1 1.86517e-14 -12 -20.7846 0 
379 850 852 1 8.52651e-14 -24 0 0 
380 850 949 1 1.86517e-14 12 -20.7846 0 
381 850 951 1 1.03917e-13 -12 -20.7846 0 
382 852 951 1 6.12843e-14 12 -20.7846 0 
383 852 953 1 6.12843e-14 -12 -20.7846 0 
384 854 856 1 8.52651e-14 -24 0 0 
385 854 953 1 1.86517e-14 12 -20.7846 0 
386 854 955 1 6.12843e-14 -12 -20.7846 0 
387 855 857 1 8.52651e-14 -24 0 0 
388 856 955 1 1.03917e-13 12 -20.7846 0 
389 856 957 1 6.12843e-14 -12 -20.7846 0 
390 858 957 1 6.12843e-14 12 -20.7846 0 
391 858 959 1 6.12843e-14 -12 -20.7846 0 
392 860 862 1 8.52651e-14 -24 0 0 
393 860 961 1 1.03917e-13 -12 -20.7846 0 
394 862 961 1 6.12843e-14 12 -20.7846 0 
395 862 963 1 6.12843e-14 -12 -20.7846 0 
396 864 963 1 6.12843e-14 12 -20.7846 0 
397 864 965 1 6.12843e-14 -12 -20.7846 0 
398 866 965 1 6.12843e-14 12 -20.7846 0 
399 902 1001 1 2.13163e-14 12 -20.7846 0 
400 902 1003 1 2.13163e-14 -12 -20.7846 0 
401 904 1003 1 1.86517e-14 12 -20.7846 0 
402 904 1005 1 2.13163e-14 -12 -20.7846 0 
403 906 1005 1 1.86517e-14 12 -20.7846 0 
404 906 1007 1 1.86517e-14 -12 -20.7846 0 
405 908 1007 1 2.39808e-14 12 -20.7846 0 
406 908 1009 1 1.86517e-14 -12 -20.7846 0 
407 910 1009 1 2.39808e-14 12 -20.7846 0 
408 910 1011 1 1.33227e-14 -12 -20.7846 0 
409 912 1011 1 2.39808e-14 12 -20.7846 0 
410 912 1013 1 1.33227e-14 -12 -20.7846 0 
411 914 1013 1 2.39808e-14 12 -20.7846 0 
412 914 1015 1 2.39808e-14 -12 -20.7846 0 
413 916 1015 1 1.33227e-14 12 -20.7846 0 
414 916 1017 1 2.39808e-14 -12 -20.7846 0 
415 918 1017 1 2.39808e-14 12 -20.7846 0 
416 918 1019 1 2.39808e-14 -12 -20.7846 0 
417 920 1019 1 2.66454e-15 12 -20.7846 0 
418 920 1021 1 2.39808e-14 -12 -20.7846 0 
419 922 1021 1 2.39808e-14 12 -20.7846 0 
420 922 1023 1 2.39808e-14 -12 -20.7846 0 
421 924 1023 1 2.39808e-14 12 -20.7846 0 
422 924 1025 1 2.66454e-15 -12 -20.7846 0 
423 926 1025 1 2.39808e-14 12 -20.7846 0 
424 926 1027 1 2.39808e-14 -12 -20.7846 0 
425 928 930 1 4.26326e-14 -24 0 0 
426 928 1027 1 2.66454e-15 12 -20.7846 0 
427 928 1029 1 4.52971e-14 -12 -20.7846 0 
428 930 1029 1 2.39808e-14 12 -20.7846 0 
429 930 1031 1 2.66454e-15 -12 -20.7846 0 
430 932 1031 1 2.39808e-14 12 -20.7846 0 
431 932 1033 1 2.39808e-14 -12 -20.7846 0 
432 934 936 1 8.52651e-14 -24 0 0 
433 934 1035 1 6.66134e-14 -12 -20.7846 0 
434 936 1035 1 2.39808e-14 12 -20.7846 0 
435 936 1037 1 2.39808e-14 -12 -20.7846 0 
436 938 1037 1 2.39808e-14 12 -20.7846 0 
437 940 1039 1 2.39808e-14 12 -20.7846 0 
438 940 1041 1 2.39808e-14 -12 -20.7846 0 
439 942 944 1 8.52651e-14 -24 0 0 
440 942 1043 1 6.66134e-14 -12 -20.7846 0 
441 944 1043 1 2.39808e-14 12 -20.7846 0 
442 944 1045 1 2.39808e-14 -12 -20.7846 0 
443 946 1045 1 2.39808e-14 12 -20.7846 0 
444 946 1047 1 2.39808e-14 -12 -20.7846 0 
445 948 1047 1 2.39808e-14 12 -20.7846 0 
446 950 952 1 8.52651e-14 -24 0 0 
447 950 1051 1 6.66134e-14 -12 -20.7846 0 
448 952 1051 1 2.39808e-14 12 -20.7846 0 
449 952 1053 1 2.39808e-14 -12 -20.7846 0 
450 954 956 1 8.52651e-14 -24 0 0 
451 954 1055 1 2.39808e-14 -12 -20.7846 0 
452 955 957 1 8.52651e-14 -24 0 0 
453 956 1055 1 6.66134e-14 12 -20.7846 0 
454 956 1057 1 2.39808e-14 -12 -20.7846 0 
455 958 1057 1 2.39808e-14 12 -20.7846 0 
456 958 1059 1 2.39808e-14 -12 -20.7846 0 
457 960 962 1 8.52651e-14 -24 0 0 
458 960 1061 1 6.66134e-14 -12 -20.7846 0 
459 962 1061 1 2.39808e-14 12 -20.7846 0 
460 962 1063 1 2.39808e-14 -12 -20.7846 0 
461 964 1063 1 2.39808e-14 12 -20.7846 0 
462 964 1065 1 2.39808e-14 -12 -20.7846 0 
463 966 1065 1 2.39808e-14 12 -20.7846 0 
464 1028 1030 1 4.26326e-14 -24 0 0 
465 1034 1036 1 8.52651e-14 -24 0 0 
466 1042 1044 1 8.52651e-14 -24 0 0 
467 1050 1052 1 8.52651e-14 -24 0 0 
468 1054 1056 1 8.52651e-14 -24 0 0 
469 1055 1057 1 8.52651e-14 -24 0 0 
470 1060 1062 1 8.52651e-14 -24 0 0 
471 1101 1200 1 1.59872e-14 12 -20.7846 0 
472 1101 1102 1 2.13163e-14 -12 -20.7846 0 
473 1103 1102 1 2.13163e-14 12 -20.7846 0 
474 1103 1104 1 1.86517e-14 -12 -20.7846 0 
475 1105 1104 1 2.13163e-14 12 -20.7846 0 
476 1105 1106 1 1.86517e-14 -12 -20.7846 0 
477 1107 1106 1 1.86517e-14 12 -20.7846 0 
478 1107 1108 1 2.39808e-14 -12 -20.7846 0 
479 1109 1108 1 1.86517e-14 12 -20.7846 0 
480 1109 1110 1 2.39808e-14 -12 -20.7846 0 
481 1111 1110 1 1.33227e-14 12 -20.7846 0 
482 1111 1112 1 2.39808e-14 -12 -20.7846 0 
483 1113 1112 1 1.33227e-14 12 -20.7846 0 
484 1113 1114 1 2.39808e-14 -12 -20.7846 0 
485 1115 1114 1 2.39808e-14 12 -20.7846 0 
486 1115 1116 1 1.33227e-14 -12 -20.7846 0 
487 1117 1116 1 2.39808e-14 12 -20.7846 0 
488 1117 1118 1 2.39808e-14 -12 -20.7846 0 
489 1119 1118 1 2.39808e-14 12 -20.7846 0 
490 1119 1120 1 2.66454e-15 -12 -20.7846 0 
491 1121 1120 1 2.39808e-14 12 -20.7846 0 
492 1121 1122 1 2.39808e-14 -12 -20.7846 0 
493 1123 1122 1 2.39808e-14 12 -20.7846 0 
494 1123 1124 1 2.39808e-14 -12 -20.7846 0 
495 1125 1124 1 2.66454e-15 12 -20.7846 0 
496 1125 1126 1 2.39808e-14 -12 -20.7846 0 
497 1127 1126 1 2.39808e-14 12 -20.7846 0 
498 1127 1128 1 2.66454e-15 -12 -20.7846 0 
499 1128 1130 1 4.26326e-14 -24 0 0 
500 1129 1128 1 4.52971e-14 12 -20.7846 0 
501 1129 1130 1 2.39808e-14 -12 -20.7846 0 
502 1131 1130 1 2.66454e-15 12 -20.7846 0 
503 1131 1132 1 2.39808e-14 -12 -20.7846 0 
504 1133 1132 1 2.39808e-14 12 -20.7846 0 
505 1134 1136 1 8.52651e-14 -24 0 0 
506 1135 1134 1 6.66134e-14 12 -20.7846 0 
507 1135 1136 1 2.39808e-14 -12 -20.7846 0 
508 1137 1136 1 2.39808e-14 12 -20.7846 0 
509 1137 1138 1 2.39808e-14 -12 -20.7846 0 
510 1139 1140 1 2.39808e-14 -12 -20.7846 0 
511 1141 1140 1 2.39808e-14 12 -20.7846 0 
512 1142 1144 1 8.52651e-14 -24 0 0 
513 1143 1142 1 6.66134e-14 12 -20.7846 0 
514 1143 1144 1 2.39808e-14 -12 -20.7846 0 
515 1145 1144 1 2.39808e-14 12 -20.7846 0 
516 1145 1146 1 2.39808e-14 -12 -20.7846 0 
517 1147 1146 1 2.39808e-14 12 -20.7846 0 
518 1147 1148 1 2.39808e-14 -12 -20.7846 0 
519 1150 1152 1 8.52651e-14 -24 0 0 
520 1151 1150 1 6.66134e-14 12 -20.7846 0 
521 1151 1152 1 2.39808e-14 -12 -20.7846 0 
522 1153 1152 1 2.39808e-14 12 -20.7846 0 
523 1154 1156 1 8.52651e-14 -24 0 0 
524 1155 1157 1 8.52651e-14 -24 0 0 
525 1155 1154 1 2.39808e-14 12 -20.7846 0 
526 1155 1156 1 6.66134e-14 -12 -20.7846 0 
527 1157 1156 1 2.39808e-14 12 -20.7846 0 
528 1157 1158 1 2.39808e-14 -12 -20.7846 0 
529 1159 1158 1 2.39808e-14 12 -20.7846 0 
530 1160 1162 1 8.52651e-14 -24 0 0 
531 1161 1160 1 6.66134e-14 12 -20.7846 0 
532 1161 1162 1 2.39808e-14 -12 -20.7846 0 
533 1163 1162 1 2.39808e-14 12 -20.7846 0 
534 1163 1164 1 2.39808e-14 -12 -20.7846 0 
535 1165 1164 1 2.39808e-14 12 -20.7846 0 
536 1165 1166 1 2.39808e-14 -12 -20.7846 0 
537 1201 1300 1 1.59872e-14 12 -20.7846 0 
538 1201 1202 1 2.13163e-14 -12 -20.7846 0 
539 1202 1301 1 2.13163e-14 12 -20.7846 0 
540 1202 1303 1 2.13163e-14 -12 -20.7846 0 
541 1203 1202 1 2.13163e-14 12 -20.7846 0 
542 1203 1204 1 1.86517e-14 -12 -20.7846 0 
543 1204 1303 1 1.86517e-14 12 -20.7846 0 
544 1204 1305 1 2.13163e-14 -12 -20.7846 0 
545 1205 1204 1 2.13163e-14 12 -20.7846 0 
546 1205 1206 1 1.86517e-14 -12 -20.7846 0 
547 1206 1305 1 1.86517e-14 12 -20.7846 0 
548 1206 1307 1 1.86517e-14 -12 -20.7846 0 
549 1207 1206 1 1.86517e-14 12 -20.7846 0 
550 1207 1208 1 2.39808e-14 -12 -20.7846 0 
551 1208 1307 1 2.39808e-14 12 -20.7846 0 
552 1208 1309 1 1.86517e-14 -12 -20.7846 0 
553 1209 1208 1 1.86517e-14 12 -20.7846 0 
554 1209 1210 1 2.39808e-14 -12 -20.7846 0 
555 1210 1309 1 2.39808e-14 12 -20.7846 0 
556 1210 1311 1 1.33227e-14 -12 -20.7846 0 
557 1211 1210 1 1.33227e-14 12 -20.7846 0 
558 1211 1212 1 2.39808e-14 -12 -20.7846 0 
559 1212 1311 1 2.39808e-14 12 -20.7846 0 
560 1212 1313 1 1.33227e-14 -12 -20.7846 0 
561 1213 1212 1 1.33227e-14 12 -20.7846 0 
562 1213 1214 1 2.39808e-14 -12 -20.7846 0 
563 1214 1313 1 2.39808e-14 12 -20.7846 0 
564 1214 1315 1 2.39808e-14 -12 -20.7846 0 
565 1215 1214 1 2.39808e-14 12 -20.7846 0 
566 1215 1216 1 1.33227e-14 -12 -20.7846 0 
567 1216 1315 1 1.33227e-14 12 -20.7846 0 
568 1216 1317 1 2.39808e-14 -12 -20.7846 0 
569 1217 1216 1 2.39808e-14 12 -20.7846 0 
570 1217 1218 1 2.39808e-14 -12 -20.7846 0 
571 1218 1317 1 2.39808e-14 12 -20.7846 0 
572 1218 1319 1 2.39808e-14 -12 -20.7846 0 
573 1219 1218 1 2.39808e-14 12 -20.7846 0 
574 1219 1220 1 2.66454e-15 -12 -20.7846 0 
575 1220 1319 1 2.66454e-15 12 -20.7846 0 
576 1220 1321 1 2.39808e-14 -12 -20.7846 0 
577 1221 1220 1 2.39808e-14 12 -20.7846 0 
578 1221 1222 1 2.39808e-14 -12 -20.7846 0 
579 1222 1321 1 2.39808e-14 12 -20.7846 0 
580 1222 1323 1 2.39808e-14 -12 -20.7846 0 
581 1223 1222 1 2.39808e-14 12 -20.7846 0 
582 1223 1224 1 2.39808e-14 -12 -20.7846 0 
583 1224 1323 1 2.39808e-14 12 -20.7846 0 
584 1224 1325 1 2.66454e-15 -12 -20.7846 0 
585 1225 1224 1 2.66454e-15 12 -20.7846 0 
586 1225 1226 1 2.39808e-14 -12 -20.7846 0 
587 1226 1325 1 2.39808e-14 12 -20.7846 0 
588 1226 1327 1 2.39808e-14 -12 -20.7846 0 
589 1227 1226 1 2.39808e-14 12 -20.7846 0 
590 1227 1228 1 2.66454e-15 -12 -20.7846 0 
591 1228 1230 1 4.26326e-14 -24 0 0 
592 1228 1327 1 2.66454e-15 12 -20.7846 0 
593 1228 1329 1 4.52971e-14 -12 -20.7846 0 
594 1229 1228 1 4.52971e-14 12 -20.7846 0 
595 1229 1230 1 2.39808e-14 -12 -20.7846 0 
596 1230 1329 1 2.39808e-14 12 -20.7846 0 
597 1230 1331 1 2.66454e-15 -12 -20.7846 0 
598 1231 1230 1 2.66454e-15 12 -20.7846 0 
599 1231 1232 1 2.39808e-14 -12 -20.7846 0 
600 1232 1331 1 2.39808e-14 12 -20.7846 0 
601 1232 1333 1 2.39808e-14 -12 -20.7846 0 
602 1233 1232 1 2.39808e-14 12 -20.7846 0 
603 1234 1236 1 8.52651e-14 -24 0 0 
604 1234 1335 1 6.66134e-14 -12 -20.7846 0 
605 1235 1234 1 6.66134e-14 12 -20.7846 0 
606 1235 1236 1 2.39808e-14 -12 -20.7846 0 
607 1236 1335 1 2.39808e-14 12 -20.7846 0 
608 1236 1337 1 2.39808e-14 -12 -20.7846 0 
609 1237 1236 1 2.39808e-14 12 -20.7846 0 
610 1237 1238 1 2.39808e-14 -12 -20.7846 0 
611 1238 1337 1 2.39808e-14 12 -20.7846 0 
612 1239 1240 1 2.39808e-14 -12 -20.7846 0 
613 1240 1339 1 2.39808e-14 12 -20.7846 0 
614 1240 1341 1 2.39808e-14 -12 -20.7846 0 
615 1241 1240 1 2.39808e-14 12 -20.7846 0 
616 1242 1244 1 8.52651e-14 -24 0 0 
617 1242 1343 1 6.66134e-14 -12 -20.7846 0 
618 1243 1242 1 6.66134e-14 12 -20.7846 0 
619 1243 1244 1 2.39808e-14 -12 -20.7846 0 
620 1244 1343 1 2.39808e-14 12 -20.7846 0 
621 1244 1345 1 2.39808e-14 -12 -20.7846 0 
622 1245 1244 1 2.39808e-14 12 -20.7846 0 
623 1245 1246 1 2.39808e-14 -12 -20.7846 0 
624 1246 1345 1 2.39808e-14 12 -20.7846 0 
625 1246 1347 1 2.39808e-14 -12 -20.7846 0 
626 1247 1246 1 2.39808e-14 12 -20.7846 0 
627 1247 1248 1 2.39808e-14 -12 -20.7846 0 
628 1248 1347 1 2.39808e-14 12 -20.7846 0 
629 1250 1252 1 8.52651e-14 -24 0 0 
630 1250 1351 1 6.66134e-14 -12 -20.7846 0 
631 1251 1250 1 6.66134e-14 12 -20.7846 0 
632 1251 1252 1 2.39808e-14 -12 -20.7846 0 
633 1252 1351 1 2.39808e-14 12 -20.7846 0 
634 1252 1353 1 2.39808e-14 -12 -20.7846 0 
635 1253 1252 1 2.39808e-14 12 -20.7846 0 
636 1254 1256 1 8.52651e-14 -24 0 0 
637 1254 1355 1 2.39808e-14 -12 -20.7846 0 
638 1255 1257 1 8.52651e-14 -24 0 0 
639 1255 1254 1 2.39808e-14 12 -20.7846 0 
640 1255 1256 1 6.66134e-14 -12 -20.7846 0 
641 1256 1355 1 6.66134e-14 12 -20.7846 0 
642 1256 1357 1 2.39808e-14 -12 -20.7846 0 
643 1257 1256 1 2.39808e-14 12 -20.7846 0 
644 1257 1258 1 2.39808e-14 -12 -20.7846 0 
645 1258 1357 1 2.39808e-14 12 -20.7846 0 
646 1258 1359 1 2.39808e-14 -12 -20.7846 0 
647 1259 1258 1 2.39808e-14 12 -20.7846 0 
648 1260 1262 1 8.52651e-14 -24 0 0 
649 1260 1361 1 6.66134e-14 -12 -20.7846 0 
650 1261 1260 1 6.66134e-14 12 -20.7846 0 
651 1261 1262 1 2.39808e-14 -12 -20.7846 0 
652 1262 1361 1 2.39808e-14 12 -20.7846 0 
653 1262 1363 1 2.39808e-14 -12 -20.7846 0 
654 1263 1262 1 2.39808e-14 12 -20.7846 0 
655 1263 1264 1 2.39808e-14 -12 -20.7846 0 
656 1264 1363 1 2.39808e-14 12 -20.7846 0 
657 1264 1365 1 2.39808e-14 -12 -20.7846 0 
658 1265 1264 1 2.39808e-14 12 -20.7846 0 
659 1265 1266 1 2.39808e-14 -12 -20.7846 0 
660 1266 1365 1 2.39808e-14 12 -20.7846 0 
661 1301 1400 1 1.59872e-14 12 -20.7846 0 
662 1301 1302 1 2.13163e-14 -12 -20.7846 0 
663 1303 1302 1 2.13163e-14 12 -20.7846 0 
664 1303 1304 1 1.86517e-14 -12 -20.7846 0 
665 1305 1304 1 2.13163e-14 12 -20.7846 0 
666 1305 1306 1 1.86517e-14 -12 -20.7846 0 
667 1307 1306 1 1.86517e-14 12 -20.7846 0 
668 1307 1308 1 2.39808e-14 -12 -20.7846 0 
669 1309 1308 1 1.86517e-14 12 -20.7846 0 
670 1309 1310 1 2.39808e-14 -12 -20.7846 0 
671 1311 1310 1 1.33227e-14 12 -20.7846 0 
672 1311 1312 1 2.39808e-14 -12 -20.7846 0 
673 1313 1312 1 1.33227e-14 12 -20.7846 0 
674 1313 1314 1 2.39808e-14 -12 -20.7846 0 
675 1315 1314 1 2.39808e-14 12 -20.7846 0 
676 1315 1316 1 1.33227e-14 -12 -20.7846 0 
677 1317 1316 1 2.39808e-14 12 -20.7846 0 
678 1317 1318 1 2.39808e-14 -12 -20.7846 0 
679 1319 1318 1 2.39808e-14 12 -20.7846 0 
680 1319 1320 1 2.66454e-15 -12 -20.7846 0 
681 1321 1320 1 2.39808e-14 12 -20.7846 0 
682 1321 1322 1 2.39808e-14 -12 -20.7846 0 
683 1323 1322 1 2.39808e-14 12 -20.7846 0 
684 1323 1324 1 2.39808e-14 -12 -20.7846 0 
685 1325 1324 1 2.66454e-15 12 -20.7846 0 
686 1325 1326 1 2.39808e-14 -12 -20.7846 0 
687 1327 1326 1 2.39808e-14 12 -20.7846 0 
688 1327 1328 1 2.66454e-15 -12 -20.7846 0 
689 1328 1330 1 4.26326e-14 -24 0 0 
690 1329 1328 1 4.52971e-14 12 -20.7846 0 
691 1329 1330 1 2.39808e-14 -12 -20.7846 0 
692 1331 1330 1 2.66454e-15 12 -20.7846 0 
693 1331 1332 1 2.39808e-14 -12 -20.7846 0 
694 1333 1332 1 2.39808e-14 12 -20.7846 0 
695 1334 1336 1 8.52651e-14 -24 0 0 
696 1335 1334 1 6.66134e-14 12 -20.7846 0 
697 1335 1336 1 2.39808e-14 -12 -20.7846 0 
698 1337 1336 1 2.39808e-14 12 -20.7846 0 
699 1337 1338 1 2.39808e-14 -12 -20.7846 0 
700 1339 1340 1 2.39808e-14 -12 -20.7846 0 
701 1341 1340 1 2.39808e-14 12 -20.7846 0 
702 1342 1344 1 8.52651e-14 -24 0 0 
703 1343 1342 1 6.66134e-14 12 -20.7846 0 
704 1343 1344 1 2.39808e-14 -12 -20.7846 0 
705 1345 1344 1 2.39808e-14 12 -20.7846 0 
706 1345 1346 1 2.39808e-14 -12 -20.7846 0 
707 1347 1346 1 2.39808e-14 12 -20.7846 0 
708 1347 1348 1 2.39808e-14 -12 -20.7846 0 
709 1350 1352 1 8.52651e-14 -24 0 0 
710 1351 1350 1 6.66134e-14 12 -20.7846 0 
711 1351 1352 1 2.39808e-14 -12 -20.7846 0 
712 1353 1352 1 2.39808e-14 12 -20.7846 0 
713 1354 1356 1 8.52651e-14 -24 0 0 
714 1355 1357 1 8.52651e-14 -24 0 0 
715 1355 1354 1 2.39808e-14 12 -20.7846 0 
716 1355 1356 1 6.66134e-14 -12 -20.7846 0 
717 1357 1356 1 2.39808e-14 12 -20.7846 0 
718 1357 1358 1 2.39808e-14 -12 -20.7846 0 
719 1359 1358 1 2.39808e-14 12 -20.7846 0 