ITEM: TIMESTEP
0
ITEM: NUMBER OF ATOMS
200
ITEM: BOX BOUNDS pp pp pp
0.0000000000000000e+00 1.0997837095988901e+01
0.0000000000000000e+00 1.9048812623618531e+01
-5.4989185479944502e-01 5.4989185479944502e-01
ITEM: ATOMS mass type xs ys zs c_csym c_peratom fx fy fz
1 1 0 0 0.5 0 -294.908 -5.34328e-12 -1.09708e-11 0
1 1 0.05 0.05 0.5 0 -294.908 -2.89901e-12 0 0
1 1 0.1 0 0.5 0 -294.908 -2.41585e-13 -1.09708e-11 0
1 1 0.15 0.05 0.5 0 -294.908 4.718e-12 -2.84217e-14 0
1 1 0.2 0 0.5 0 -294.908 -1.84741e-12 -8.18545e-12 0
1 1 0.25 0.05 0.5 0 -294.908 -5.98277e-12 0 0
1 1 0.3 0 0.5 0 -294.908 5.34328e-12 -9.37916e-12 0
1 1 0.35 0.05 0.5 0 -294.908 2.89901e-12 0 0
1 1 0.4 0 0.5 0 -294.908 0 -8.18545e-12 0
1 1 0.45 0.05 0.5 0 -294.908 0 0 0
1 1 0 0.1 0.5 0 -294.908 -5.34328e-12 7.75913e-12 0
1 1 0.05 0.15 0.5 0 -294.908 -2.89901e-12 -1.55751e-11 0
1 1 0.1 0.1 0.5 0 -294.908 -2.27374e-13 7.78755e-12 0
1 1 0.15 0.15 0.5 0 -294.908 3.65219e-12 -1.41824e-11 0
1 1 0.2 0.1 0.5 0 -294.908 -1.84741e-12 5.00222e-12 0
1 1 0.25 0.15 0.5 0 -294.908 -4.68958e-12 -1.27898e-11 0
1 1 0.3 0.1 0.5 0 -294.908 5.34328e-12 6.13909e-12 0
1 1 0.35 0.15 0.5 0 -294.908 2.89901e-12 -1.27898e-11 0
1 1 0.4 0.1 0.5 0 -294.908 0 5.00222e-12 0
1 1 0.45 0.15 0.5 0 -294.908 0 -1.27898e-11 0
1 1 0 0.2 0.5 0 -294.908 -6.25278e-12 1.11697e-11 0
1 1 0.05 0.25 0.5 0 -294.908 -2.89901e-12 6.42331e-12 0
1 1 0.1 0.2 0.5 0 -294.908 2.84217e-14 1.2335e-11 0
1 1 0.15 0.25 0.5 0 -294.908 2.81375e-12 6.42331e-12 0
1 1 0.2 0.2 0.5 0 -294.908 -1.84741e-12 9.54969e-12 0
1 1 0.25 0.25 0.5 0 -294.908 -4.23483e-12 5.76961e-12 0
1 1 0.3 0.2 0.5 0 -294.908 4.26326e-12 1.02602e-11 0
1 1 0.35 0.25 0.5 0 -294.908 2.89901e-12 6.42331e-12 0
1 1 0.4 0.2 0.5 0 -294.908 0 9.54969e-12 0
1 1 0.45 0.25 0.5 0 -294.908 0 6.42331e-12 0
1 1 0 0.3 0.5 0 -294.908 -5.85487e-12 -2.33058e-11 0
1 1 0.05 0.35 0.5 0 -294.908 -2.89901e-12 1.2335e-11 0
1 1 0.1 0.3 0.5 0 -294.908 5.68434e-14 -2.37605e-11 0
1 1 0.15 0.35 0.5 0 -294.908 3.24007e-12 1.16529e-11 0
1 1 0.2 0.3 0.5 0 -294.908 -1.84741e-12 -2.23963e-11 0
1 1 0.25 0.35 0.5 0 -294.908 -4.64695e-12 1.09139e-11 0
1 1 0.3 0.3 0.5 0 -294.908 4.66116e-12 -2.24247e-11 0
1 1 0.35 0.35 0.5 0 -294.908 2.89901e-12 1.09708e-11 0
1 1 0.4 0.3 0.5 0 -294.908 0 -2.23963e-11 0
1 1 0.45 0.35 0.5 0 -294.908 0 1.09708e-11 0
1 1 0 0.4 0.5 0 -294.908 -5.34328e-12 0 0
1 1 0.05 0.45 0.5 0 -294.908 -2.89901e-12 1.14255e-11 0
1 1 0.1 0.4 0.5 0 -294.908 5.68434e-14 0 0
1 1 0.15 0.45 0.5 0 -294.908 2.84217e-12 1.14255e-11 0
1 1 0.2 0.4 0.5 0 -294.908 -1.84741e-12 0 0
1 1 0.25 0.45 0.5 0 -294.908 -4.68958e-12 1.14539e-11 0
1 1 0.3 0.4 0.5 0 -294.908 4.718e-12 0 0
1 1 0.35 0.45 0.5 0 -294.908 2.89901e-12 1.14255e-11 0
1 1 0.4 0.4 0.5 0 -294.908 0 0 0
1 1 0.45 0.45 0.5 0 -294.908 0 1.14255e-11 0
1 1 0 0.5 0.5 0 -294.908 -5.6275e-12 0 0
1 1 0.05 0.55 0.5 0 -294.908 -2.89901e-12 0 0
1 1 0.1 0.5 0.5 0 -294.908 2.84217e-14 0 0
1 1 0.15 0.55 0.5 0 -294.908 2.84217e-12 0 0
1 1 0.2 0.5 0.5 0 -294.908 -1.84741e-12 0 0
1 1 0.25 0.55 0.5 0 -294.908 -4.66116e-12 0 0
1 1 0.3 0.5 0.5 0 -294.908 4.66116e-12 0 0
1 1 0.35 0.55 0.5 0 -294.908 2.89901e-12 0 0
1 1 0.4 0.5 0.5 0 -294.908 0 0 0
1 1 0.45 0.55 0.5 0 -294.908 0 0 0
1 1 0 0.6 0.5 0 -294.908 -4.80327e-12 -4.57021e-11 0
1 1 0.05 0.65 0.5 0 -294.908 -2.89901e-12 4.4281e-11 0
1 1 0.1 0.6 0.5 0 -294.908 -7.53175e-13 -4.56453e-11 0
1 1 0.15 0.65 0.5 0 -294.908 3.62377e-12 4.56453e-11 0
1 1 0 0.7 0.5 0 -294.908 -5.91172e-12 -2.33058e-11 0
1 1 0.1 0.7 0.5 0 -294.908 4.26326e-14 -2.37605e-11 0
1 1 0.2 0.6 0.5 0 -294.908 -1.84741e-12 -4.4281e-11 0
1 1 0.25 0.65 0.5 0 -294.908 -4.60432e-12 4.4281e-11 0
1 1 0.3 0.6 0.5 0 -294.908 4.64695e-12 -4.43094e-11 0
1 1 0.2 0.7 0.5 0 -294.908 -1.84741e-12 -2.23963e-11 0
1 1 0.3 0.7 0.5 0 -294.908 4.64695e-12 -2.24247e-11 0
1 1 0.35 0.65 0.5 0 -294.908 2.8848e-12 4.4281e-11 0
1 1 0.4 0.6 0.5 0 -294.908 0 -4.4281e-11 0
1 1 0.45 0.65 0.5 0 -294.908 4.26326e-14 4.4281e-11 0
1 1 0.4 0.7 0.5 0 -294.908 0 -2.23963e-11 0
1 1 0.05 0.75 0.5 0 -294.908 -2.89901e-12 2.37605e-11 0
1 1 0.15 0.75 0.5 0 -294.908 3.24007e-12 2.30784e-11 0
1 1 0 0.8 0.5 0 -294.908 -5.6275e-12 2.18847e-11 0
1 1 0.1 0.8 0.5 0 -294.908 -9.9476e-14 2.16573e-11 0
1 1 0.25 0.75 0.5 0 -294.908 -4.63274e-12 2.23679e-11 0
1 1 0.2 0.8 0.5 0 -294.908 -1.84741e-12 2.467e-11 0
1 1 0.3 0.8 0.5 0 -294.908 5.45697e-12 2.3249e-11 0
1 1 0.35 0.75 0.5 0 -294.908 2.89901e-12 2.23963e-11 0
1 1 0.45 0.75 0.5 0 -294.908 2.84217e-14 2.23963e-11 0
1 1 0.4 0.8 0.5 0 -294.908 0 2.467e-11 0
1 1 0.05 0.85 0.5 0 -294.908 -2.89901e-12 -6.61657e-11 0
1 1 0.15 0.85 0.5 0 -294.908 4.56168e-12 -6.87237e-11 0
1 1 0 0.9 0.5 0 -294.908 -4.77485e-12 4.57021e-11 0
1 1 0.1 0.9 0.5 0 -294.908 -7.53175e-13 4.56453e-11 0
1 1 0.25 0.85 0.5 0 -294.908 -5.45697e-12 -6.75584e-11 0
1 1 0.2 0.9 0.5 0 -294.908 -1.87583e-12 4.4281e-11 0
1 1 0.3 0.9 0.5 0 -294.908 4.63274e-12 4.43094e-11 0
1 1 0.35 0.85 0.5 0 -294.908 2.91323e-12 -6.89511e-11 0
1 1 0.45 0.85 0.5 0 -294.908 2.84217e-14 -6.89511e-11 0
1 1 0.4 0.9 0.5 0 -294.908 0 4.4281e-11 0
1 1 0.05 0.95 0.5 0 -294.908 -2.89901e-12 0 0
1 1 0.15 0.95 0.5 0 -294.908 2.84217e-12 0 0
1 1 0.25 0.95 0.5 0 -294.908 -4.66116e-12 -2.84217e-14 0
1 1 0.35 0.95 0.5 0 -294.908 2.89901e-12 0 0
1 1 0.45 0.95 0.5 0 -294.908 0 0 0
1 1 0.5 0 0.5 0 -294.908 -7.38964e-12 -8.18545e-12 0
1 1 0.55 0.05 0.5 0 -294.908 -1.17097e-11 2.84217e-14 0
1 1 0.6 0 0.5 0 -294.908 1.13403e-11 -8.86757e-12 0
1 1 0.65 0.05 0.5 0 -294.908 1.59162e-11 0 0
1 1 0.7 0 0.5 0 -294.908 3.65219e-12 -9.77707e-12 0
1 1 0.75 0.05 0.5 0 -294.908 -3.06244e-11 0 0
1 1 0.8 0 0.5 0 -294.908 0 -9.54969e-12 0
1 1 0.85 0.05 0.5 0 -294.908 2.21263e-11 0 0
1 1 0.9 0 0.5 0 -294.908 -7.57439e-12 -1.04592e-11 0
1 1 0.95 0.05 0.5 0 -294.908 7.00595e-12 0 0
1 1 0.5 0.1 0.5 0 -294.908 -7.44649e-12 5.00222e-12 0
1 1 0.55 0.15 0.5 0 -294.908 -1.09708e-11 -1.4154e-11 0
1 1 0.6 0.1 0.5 0 -294.908 1.09139e-11 6.39488e-12 0
1 1 0.65 0.15 0.5 0 -294.908 1.59162e-11 -1.27898e-11 0
1 1 0.7 0.1 0.5 0 -294.908 3.63798e-12 6.56541e-12 0
1 1 0.75 0.15 0.5 0 -294.908 -3.16049e-11 -1.43814e-11 0
1 1 0.8 0.1 0.5 0 -294.908 0 7.7307e-12 0
1 1 0.85 0.15 0.5 0 -294.908 2.30784e-11 -1.43814e-11 0
1 1 0.9 0.1 0.5 0 -294.908 -7.16227e-12 7.95808e-12 0
1 1 0.95 0.15 0.5 0 -294.908 7.95808e-12 -1.43814e-11 0
1 1 0.5 0.2 0.5 0 -294.908 -7.38964e-12 9.54969e-12 0
1 1 0.55 0.25 0.5 0 -294.908 -1.0516e-11 5.71276e-12 0
1 1 0.6 0.2 0.5 0 -294.908 1.09139e-11 1.09708e-11 0
1 1 0.65 0.25 0.5 0 -294.908 1.59162e-11 6.42331e-12 0
1 1 0.7 0.2 0.5 0 -294.908 4.46221e-12 9.77707e-12 0
1 1 0.75 0.25 0.5 0 -294.908 -3.13349e-11 5.71276e-12 0
1 1 0.8 0.2 0.5 0 -294.908 0 1.23919e-11 0
1 1 0.85 0.25 0.5 0 -294.908 2.28368e-11 5.71276e-12 0
1 1 0.9 0.2 0.5 0 -294.908 -7.95808e-12 1.11982e-11 0
1 1 0.95 0.25 0.5 0 -294.908 7.71649e-12 5.71276e-12 0
1 1 0.5 0.3 0.5 0 -294.908 -7.38964e-12 -2.23963e-11 0
1 1 0.55 0.35 0.5 0 -294.908 -1.15961e-11 1.12266e-11 0
1 1 0.6 0.3 0.5 0 -294.908 1.13403e-11 -2.30784e-11 0
1 1 0.65 0.35 0.5 0 -294.908 1.59162e-11 1.09708e-11 0
1 1 0.7 0.3 0.5 0 -294.908 4.43379e-12 -2.26237e-11 0
1 1 0.75 0.35 0.5 0 -294.908 -3.2145e-11 1.12266e-11 0
1 1 0.8 0.3 0.5 0 -294.908 0 -2.38174e-11 0
1 1 0.85 0.35 0.5 0 -294.908 2.36469e-11 1.12266e-11 0
1 1 0.9 0.3 0.5 0 -294.908 -8.35598e-12 -2.33058e-11 0
1 1 0.95 0.35 0.5 0 -294.908 8.52651e-12 1.12266e-11 0
1 1 0.5 0.4 0.5 0 -294.908 -7.38964e-12 0 0
1 1 0.55 0.45 0.5 0 -294.908 -1.11982e-11 1.18519e-11 0
1 1 0.6 0.4 0.5 0 -294.908 1.14824e-11 -2.84217e-14 0
1 1 0.65 0.45 0.5 0 -294.908 1.59162e-11 1.14255e-11 0
1 1 0.7 0.4 0.5 0 -294.908 4.3201e-12 0 0
1 1 0.75 0.45 0.5 0 -294.908 -3.19034e-11 1.20792e-11 0
1 1 0.8 0.4 0.5 0 -294.908 0 0 0
1 1 0.85 0.45 0.5 0 -294.908 2.33769e-11 1.20792e-11 0
1 1 0.9 0.4 0.5 0 -294.908 -8.41283e-12 -2.84217e-14 0
1 1 0.95 0.45 0.5 0 -294.908 8.25651e-12 1.20792e-11 0
1 1 0.5 0.5 0.5 0 -294.908 -7.41807e-12 0 0
1 1 0.55 0.55 0.5 0 -294.908 -1.09424e-11 0 0
1 1 0.6 0.5 0.5 0 -294.908 1.09424e-11 0 0
1 1 0.65 0.55 0.5 0 -294.908 1.59446e-11 0 0
1 1 0.7 0.5 0.5 0 -294.908 4.5759e-12 0 0
1 1 0.75 0.55 0.5 0 -294.908 -3.17186e-11 0 0
1 1 0.8 0.5 0.5 0 -294.908 0 0 0
1 1 0.85 0.55 0.5 0 -294.908 2.32205e-11 0 0
1 1 0.9 0.5 0.5 0 -294.908 -8.10019e-12 0 0
1 1 0.95 0.55 0.5 0 -294.908 8.10019e-12 0 0
1 1 0.5 0.6 0.5 0 -294.908 -7.41807e-12 -4.4281e-11 0
1 1 0.55 0.65 0.5 0 -294.908 -1.10845e-11 4.45084e-11 0
1 1 0.6 0.6 0.5 0 -294.908 1.10703e-11 -4.448e-11 0
1 1 0.65 0.65 0.5 0 -294.908 1.59304e-11 4.4281e-11 0
1 1 0.5 0.7 0.5 0 -294.908 -7.41807e-12 -2.23963e-11 0
1 1 0.6 0.7 0.5 0 -294.908 1.13403e-11 -2.30784e-11 0
1 1 0.7 0.6 0.5 0 -294.908 3.75167e-12 -4.57021e-11 0
1 1 0.75 0.65 0.5 0 -294.908 -3.10649e-11 4.59295e-11 0
1 1 0.8 0.6 0.5 0 -294.908 0 -4.47358e-11 0
1 1 0.7 0.7 0.5 0 -294.908 4.43379e-12 -2.26237e-11 0
1 1 0.8 0.7 0.5 0 -294.908 0 -2.38174e-11 0
1 1 0.85 0.65 0.5 0 -294.908 2.25668e-11 4.59295e-11 0
1 1 0.9 0.6 0.5 0 -294.908 -7.40386e-12 -4.59011e-11 0
1 1 0.95 0.65 0.5 0 -294.908 7.44649e-12 4.59295e-11 0
1 1 0.9 0.7 0.5 0 -294.908 -8.3844e-12 -2.33058e-11 0
1 1 0.55 0.75 0.5 0 -294.908 -1.13403e-11 2.31068e-11 0
1 1 0.65 0.75 0.5 0 -294.908 1.59162e-11 2.23963e-11 0
1 1 0.5 0.8 0.5 0 -294.908 -7.41807e-12 2.467e-11 0
1 1 0.6 0.8 0.5 0 -294.908 1.13545e-11 2.39879e-11 0
1 1 0.75 0.75 0.5 0 -294.908 -3.19744e-11 2.33342e-11 0
1 1 0.7 0.8 0.5 0 -294.908 3.76588e-12 2.32774e-11 0
1 1 0.8 0.8 0.5 0 -294.908 0 2.3249e-11 0
1 1 0.85 0.75 0.5 0 -294.908 2.34905e-11 2.33342e-11 0
1 1 0.95 0.75 0.5 0 -294.908 8.34177e-12 2.33342e-11 0
1 1 0.9 0.8 0.5 0 -294.908 -7.7307e-12 2.25953e-11 0
1 1 0.55 0.85 0.5 0 -294.908 -1.14824e-11 -6.84679e-11 0
1 1 0.65 0.85 0.5 0 -294.908 1.59019e-11 -6.89511e-11 0
1 1 0.5 0.9 0.5 0 -294.908 -7.38964e-12 4.4281e-11 0
1 1 0.6 0.9 0.5 0 -294.908 1.10845e-11 4.448e-11 0
1 1 0.75 0.85 0.5 0 -294.908 -3.06386e-11 -6.85247e-11 0
1 1 0.7 0.9 0.5 0 -294.908 3.76588e-12 4.57021e-11 0
1 1 0.8 0.9 0.5 0 -294.908 0 4.47358e-11 0
1 1 0.85 0.85 0.5 0 -294.908 2.21547e-11 -6.85247e-11 0
1 1 0.95 0.85 0.5 0 -294.908 7.03437e-12 -6.84963e-11 0
1 1 0.9 0.9 0.5 0 -294.908 -7.40386e-12 4.59579e-11 0
1 1 0.55 0.95 0.5 0 -294.908 -1.09424e-11 2.84217e-14 0
1 1 0.65 0.95 0.5 0 -294.908 1.59162e-11 0 0
1 1 0.75 0.95 0.5 0 -294.908 -3.17328e-11 2.84217e-14 0
1 1 0.85 0.95 0.5 0 -294.908 2.32063e-11 2.84217e-14 0
1 1 0.95 0.95 0.5 0 -294.908 8.10019e-12 0 0
