ITEM: TIMESTEP
0
ITEM: NUMBER OF ENTRIES
9000
ITEM: BOX BOUNDS pp pp pp
-7.0514196525667646e-14 5.6123102415468580e+01
-7.3280502622411900e-14 5.8324838917189894e+01
-2.8061551207734253e-01 2.8061551207734253e-01
ITEM: ENTRIES index c_1[1] c_1[2] c_2[1] c_2[2] c_2[3] c_2[4] c_2[5] 
1 1 3 1.12246 -10.9035 -1.2154e-12 -5.8651e-33 0 
2 1 1550 1.12246 -10.9035 -4.05134e-13 7.01712e-13 -0 
3 1 2 1.12246 -10.9035 -6.07701e-13 -1.05257e-12 0 
4 3 5 1.12246 -10.9035 -1.2154e-12 0 0 
5 3 2 1.12246 -10.9035 6.07701e-13 -1.05257e-12 0 
6 3 4 1.12246 -10.9035 -4.05134e-13 -7.01712e-13 0 
7 5 7 1.12246 -10.9035 2.02567e-13 -9.77517e-34 -0 
8 5 4 1.12246 -10.9035 6.07701e-13 -1.05257e-12 0 
9 5 6 1.12246 -10.9035 -4.05134e-13 -7.01712e-13 0 
10 7 9 1.12246 -10.9035 2.02567e-13 -0 -0 
11 7 6 1.12246 -10.9035 4.05134e-13 -7.01712e-13 0 
12 7 8 1.12246 -10.9035 -4.05134e-13 -7.01712e-13 0 
13 9 11 1.12246 -10.9035 2.02567e-13 -0 -0 
14 9 8 1.12246 -10.9035 4.05134e-13 -7.01712e-13 0 
15 9 10 1.12246 -10.9035 -4.05134e-13 -7.01712e-13 0 
16 11 13 1.12246 -10.9035 2.02567e-13 -0 -0 
17 11 10 1.12246 -10.9035 4.05134e-13 -7.01712e-13 0 
18 11 12 1.12246 -10.9035 -4.05134e-13 -7.01712e-13 0 
19 13 15 1.12246 -10.9035 2.02567e-13 -0 -0 
20 13 12 1.12246 -10.9035 4.05134e-13 -7.01712e-13 0 
21 13 14 1.12246 -10.9035 8.10268e-13 1.40342e-12 -0 
22 15 17 1.12246 -10.9035 -1.01283e-11 4.88759e-32 0 
23 15 14 1.12246 -10.9035 1.62054e-12 -2.80685e-12 0 
24 15 16 1.12246 -10.9035 -4.05134e-13 -7.01712e-13 0 
25 17 19 1.12246 -10.9035 2.02567e-13 -0 -0 
26 17 16 1.12246 -10.9035 2.83594e-12 -4.91199e-12 0 
27 17 18 1.12246 -10.9035 2.32952e-12 4.03485e-12 -0 
28 19 21 1.12246 -10.9035 2.02567e-13 -0 -0 
29 19 18 1.12246 -10.9035 2.83594e-12 -4.91199e-12 0 
30 19 20 1.12246 -10.9035 2.32952e-12 4.03485e-12 -0 
31 21 23 1.12246 -10.9035 2.02567e-13 -0 -0 
32 21 20 1.12246 -10.9035 2.83594e-12 -4.91199e-12 0 
33 21 22 1.12246 -10.9035 2.32952e-12 4.03485e-12 -0 
34 23 25 1.12246 -10.9035 2.02567e-13 -0 -0 
35 23 22 1.12246 -10.9035 2.83594e-12 -4.91199e-12 0 
36 23 24 1.12246 -10.9035 -4.05134e-13 -7.01712e-13 0 
37 25 27 1.12246 -10.9035 1.01283e-11 -0 -0 
38 25 24 1.12246 -10.9035 4.05134e-13 -7.01712e-13 0 
39 25 26 1.12246 -10.9035 2.32952e-12 4.03485e-12 -0 
40 27 29 1.12246 -10.9035 -1.01283e-11 0 0 
41 27 26 1.12246 -10.9035 4.05134e-13 -7.01712e-13 0 
42 27 28 1.12246 -10.9035 -2.83594e-12 -4.91199e-12 0 
43 29 31 1.12246 -10.9035 1.01283e-11 4.88759e-32 -0 
44 29 28 1.12246 -10.9035 4.05134e-13 -7.01712e-13 0 
45 29 30 1.12246 -10.9035 2.32952e-12 4.03485e-12 -0 
46 31 33 1.12246 -10.9035 -2.04593e-11 9.87292e-32 0 
47 31 30 1.12246 -10.9035 4.05134e-13 -7.01712e-13 0 
48 31 32 1.12246 -10.9035 -5.26674e-12 -9.12226e-12 0 
49 33 35 1.12246 -10.9035 2.02567e-11 9.77517e-32 -0 
50 33 32 1.12246 -10.9035 4.05134e-13 -7.01712e-13 0 
51 33 34 1.12246 -10.9035 4.76032e-12 8.24512e-12 -0 
52 35 37 1.12246 -10.9035 -2.04593e-11 0 0 
53 35 34 1.12246 -10.9035 4.05134e-13 -7.01712e-13 0 
54 35 36 1.12246 -10.9035 -4.05134e-13 -7.01712e-13 0 
55 37 39 1.12246 -10.9035 2.02567e-11 -0 -0 
56 37 36 1.12246 -10.9035 5.26674e-12 -9.12226e-12 0 
57 37 38 1.12246 -10.9035 4.76032e-12 8.24512e-12 -0 
58 39 41 1.12246 -10.9035 -2.04593e-11 0 0 
59 39 38 1.12246 -10.9035 4.05134e-13 -7.01712e-13 0 
60 39 40 1.12246 -10.9035 -5.26674e-12 -9.12226e-12 0 
61 41 43 1.12246 -10.9035 2.02567e-11 -9.77517e-32 -0 
62 41 40 1.12246 -10.9035 4.05134e-13 -7.01712e-13 0 
63 41 42 1.12246 -10.9035 4.76032e-12 8.24512e-12 -0 
64 43 45 1.12246 -10.9035 -2.04593e-11 -9.87292e-32 0 
65 43 42 1.12246 -10.9035 4.05134e-13 -7.01712e-13 0 
66 43 44 1.12246 -10.9035 -4.05134e-13 -7.01712e-13 0 
67 45 47 1.12246 -10.9035 2.02567e-13 -0 -0 
68 45 44 1.12246 -10.9035 5.26674e-12 -9.12226e-12 0 
69 45 46 1.12246 -10.9035 4.76032e-12 8.24512e-12 -0 
70 47 49 1.12246 -10.9035 2.02567e-13 -0 -0 
71 47 46 1.12246 -10.9035 5.26674e-12 -9.12226e-12 0 
72 47 48 1.12246 -10.9035 4.76032e-12 8.24512e-12 -0 
73 49 1501 1.12246 -10.9035 2.02567e-11 -0 -0 
74 49 48 1.12246 -10.9035 5.26674e-12 -9.12226e-12 0 
75 49 50 1.12246 -10.9035 -4.05134e-13 -7.01712e-13 0 
76 2 4 1.12246 -10.9035 -1.2154e-12 0 0 
77 2 51 1.12246 -10.9035 6.07701e-13 -1.05257e-12 0 
78 2 53 1.12246 -10.9035 -6.07701e-13 -1.05257e-12 0 
79 4 6 1.12246 -10.9035 -1.2154e-12 0 0 
80 4 53 1.12246 -10.9035 4.05134e-13 -7.01712e-13 0 
81 4 55 1.12246 -10.9035 -6.07701e-13 -1.05257e-12 0 
82 6 8 1.12246 -10.9035 2.02567e-13 -0 -0 
83 6 55 1.12246 -10.9035 4.05134e-13 -7.01712e-13 0 
84 6 57 1.12246 -10.9035 -4.05134e-13 -7.01712e-13 0 
85 8 10 1.12246 -10.9035 2.02567e-13 -0 -0 
86 8 57 1.12246 -10.9035 4.05134e-13 -7.01712e-13 0 
87 8 59 1.12246 -10.9035 -4.05134e-13 -7.01712e-13 0 
88 10 12 1.12246 -10.9035 2.02567e-13 -0 -0 
89 10 59 1.12246 -10.9035 4.05134e-13 -7.01712e-13 0 
90 10 61 1.12246 -10.9035 -4.05134e-13 -7.01712e-13 0 
91 12 14 1.12246 -10.9035 5.06417e-12 -0 -0 
92 12 61 1.12246 -10.9035 4.05134e-13 -7.01712e-13 0 
93 12 63 1.12246 -10.9035 -4.05134e-13 -7.01712e-13 0 
94 14 16 1.12246 -10.9035 -5.26674e-12 0 0 
95 14 63 1.12246 -10.9035 -8.10268e-13 1.40342e-12 -0 
96 14 65 1.12246 -10.9035 -1.62054e-12 -2.80685e-12 0 
97 16 18 1.12246 -10.9035 2.02567e-13 -0 -0 
98 16 65 1.12246 -10.9035 4.05134e-13 -7.01712e-13 0 
99 16 67 1.12246 -10.9035 -2.83594e-12 -4.91199e-12 0 
100 18 20 1.12246 -10.9035 2.02567e-13 -0 -0 
101 18 67 1.12246 -10.9035 -2.32952e-12 4.03485e-12 -0 
102 18 69 1.12246 -10.9035 -2.83594e-12 -4.91199e-12 0 
103 20 22 1.12246 -10.9035 2.02567e-13 -0 -0 
104 20 69 1.12246 -10.9035 -2.32952e-12 4.03485e-12 -0 
105 20 71 1.12246 -10.9035 -2.83594e-12 -4.91199e-12 0 
106 22 24 1.12246 -10.9035 -1.01283e-11 0 0 
107 22 71 1.12246 -10.9035 -2.32952e-12 4.03485e-12 -0 
108 22 73 1.12246 -10.9035 -2.83594e-12 -4.91199e-12 0 
109 24 26 1.12246 -10.9035 1.01283e-11 -0 -0 
110 24 73 1.12246 -10.9035 4.05134e-13 -7.01712e-13 0 
111 24 75 1.12246 -10.9035 -4.05134e-13 -7.01712e-13 0 
112 26 28 1.12246 -10.9035 -1.01283e-11 0 0 
113 26 75 1.12246 -10.9035 -2.32952e-12 4.03485e-12 -0 
114 26 77 1.12246 -10.9035 -4.05134e-13 -7.01712e-13 0 
115 28 30 1.12246 -10.9035 1.01283e-11 -0 -0 
116 28 77 1.12246 -10.9035 2.83594e-12 -4.91199e-12 0 
117 28 79 1.12246 -10.9035 -4.05134e-13 -7.01712e-13 0 
118 30 32 1.12246 -10.9035 -2.04593e-11 0 0 
119 30 79 1.12246 -10.9035 -2.32952e-12 4.03485e-12 -0 
120 30 81 1.12246 -10.9035 -4.05134e-13 -7.01712e-13 0 
121 32 34 1.12246 -10.9035 2.02567e-11 -0 -0 
122 32 81 1.12246 -10.9035 5.26674e-12 -9.12226e-12 0 
123 32 83 1.12246 -10.9035 -4.05134e-13 -7.01712e-13 0 
124 34 36 1.12246 -10.9035 2.02567e-13 -0 -0 
125 34 83 1.12246 -10.9035 -4.76032e-12 8.24512e-12 -0 
126 34 85 1.12246 -10.9035 -4.05134e-13 -7.01712e-13 0 
127 36 38 1.12246 -10.9035 2.02567e-13 -0 -0 
128 36 85 1.12246 -10.9035 4.05134e-13 -7.01712e-13 0 
129 36 87 1.12246 -10.9035 -5.26674e-12 -9.12226e-12 0 
130 38 40 1.12246 -10.9035 -2.04593e-11 0 0 
131 38 87 1.12246 -10.9035 -4.76032e-12 8.24512e-12 -0 
132 38 89 1.12246 -10.9035 -4.05134e-13 -7.01712e-13 0 
133 40 42 1.12246 -10.9035 2.02567e-11 -0 -0 
134 40 89 1.12246 -10.9035 5.26674e-12 -9.12226e-12 0 
135 40 91 1.12246 -10.9035 -4.05134e-13 -7.01712e-13 0 
136 42 44 1.12246 -10.9035 2.02567e-13 -0 -0 
137 42 91 1.12246 -10.9035 -4.76032e-12 8.24512e-12 -0 
138 42 93 1.12246 -10.9035 -4.05134e-13 -7.01712e-13 0 
139 44 46 1.12246 -10.9035 2.02567e-13 -0 -0 
140 44 93 1.12246 -10.9035 4.05134e-13 -7.01712e-13 0 
141 44 95 1.12246 -10.9035 -5.26674e-12 -9.12226e-12 0 
142 46 48 1.12246 -10.9035 2.02567e-13 -0 -0 
143 46 95 1.12246 -10.9035 -4.76032e-12 8.24512e-12 -0 
144 46 97 1.12246 -10.9035 -5.26674e-12 -9.12226e-12 0 
145 48 50 1.12246 -10.9035 -2.04593e-11 0 0 
146 48 97 1.12246 -10.9035 -4.76032e-12 8.24512e-12 -0 
147 48 99 1.12246 -10.9035 -5.26674e-12 -9.12226e-12 0 
148 50 1502 1.12246 -10.9035 -2.04593e-11 0 0 
149 50 99 1.12246 -10.9035 4.05134e-13 -7.01712e-13 0 
150 50 1551 1.12246 -10.9035 4.76032e-12 8.24512e-12 -0 
151 51 53 1.12246 -10.9035 -1.2154e-12 0 0 
152 51 1600 1.12246 -10.9035 -8.10268e-13 1.40342e-12 -0 
153 51 52 1.12246 -10.9035 -4.05134e-13 -7.01712e-13 0 
154 53 55 1.12246 -10.9035 -1.2154e-12 0 0 
155 53 52 1.12246 -10.9035 4.05134e-13 -7.01712e-13 0 
156 53 54 1.12246 -10.9035 1.01283e-13 1.75428e-13 -0 
157 55 57 1.12246 -10.9035 2.02567e-13 -0 -0 
158 55 54 1.12246 -10.9035 4.05134e-13 -7.01712e-13 0 
159 55 56 1.12246 -10.9035 1.01283e-13 1.75428e-13 -0 
160 57 59 1.12246 -10.9035 2.02567e-13 -0 -0 
161 57 56 1.12246 -10.9035 -1.01283e-13 1.75428e-13 -0 
162 57 58 1.12246 -10.9035 1.01283e-13 1.75428e-13 -0 
163 59 61 1.12246 -10.9035 2.02567e-13 -0 -0 
164 59 58 1.12246 -10.9035 -1.01283e-13 1.75428e-13 -0 
165 59 60 1.12246 -10.9035 1.01283e-13 1.75428e-13 -0 
166 61 63 1.12246 -10.9035 2.02567e-13 -0 -0 
167 61 60 1.12246 -10.9035 -1.01283e-13 1.75428e-13 -0 
168 61 62 1.12246 -10.9035 1.01283e-13 1.75428e-13 -0 
169 63 65 1.12246 -10.9035 2.02567e-13 -0 -0 
170 63 62 1.12246 -10.9035 -1.01283e-13 1.75428e-13 -0 
171 63 64 1.12246 -10.9035 1.2154e-12 2.10514e-12 -0 
172 65 67 1.12246 -10.9035 -1.01283e-11 0 0 
173 65 64 1.12246 -10.9035 1.41797e-12 -2.45599e-12 0 
174 65 66 1.12246 -10.9035 1.01283e-13 1.75428e-13 -0 
175 67 69 1.12246 -10.9035 2.02567e-13 -0 -0 
176 67 66 1.12246 -10.9035 2.63337e-12 -4.56113e-12 0 
177 67 68 1.12246 -10.9035 2.53209e-12 4.3857e-12 -0 
178 69 71 1.12246 -10.9035 2.02567e-13 -0 -0 
179 69 68 1.12246 -10.9035 2.63337e-12 -4.56113e-12 0 
180 69 70 1.12246 -10.9035 2.53209e-12 4.3857e-12 -0 
181 71 73 1.12246 -10.9035 2.02567e-13 -0 -0 
182 71 70 1.12246 -10.9035 2.63337e-12 -4.56113e-12 0 
183 71 72 1.12246 -10.9035 2.53209e-12 4.3857e-12 -0 
184 73 75 1.12246 -10.9035 2.02567e-13 -0 -0 
185 73 72 1.12246 -10.9035 2.63337e-12 -4.56113e-12 0 
186 73 74 1.12246 -10.9035 1.01283e-13 1.75428e-13 -0 
187 75 77 1.12246 -10.9035 1.01283e-11 -0 -0 
188 75 74 1.12246 -10.9035 -1.01283e-13 1.75428e-13 -0 
189 75 76 1.12246 -10.9035 2.53209e-12 4.3857e-12 -0 
190 77 79 1.12246 -10.9035 -1.01283e-11 0 0 
191 77 76 1.12246 -10.9035 -1.01283e-13 1.75428e-13 -0 
192 77 78 1.12246 -10.9035 -2.63337e-12 -4.56113e-12 0 
193 79 81 1.12246 -10.9035 1.01283e-11 -0 -0 
194 79 78 1.12246 -10.9035 -1.01283e-13 1.75428e-13 -0 
195 79 80 1.12246 -10.9035 2.53209e-12 4.3857e-12 -0 
196 81 83 1.12246 -10.9035 -2.04593e-11 0 0 
197 81 80 1.12246 -10.9035 -1.01283e-13 1.75428e-13 -0 
198 81 82 1.12246 -10.9035 -5.06417e-12 -8.7714e-12 0 
199 83 85 1.12246 -10.9035 2.02567e-11 -0 -0 
200 83 82 1.12246 -10.9035 -1.01283e-13 1.75428e-13 -0 
201 83 84 1.12246 -10.9035 5.06417e-12 8.7714e-12 -0 
202 85 87 1.12246 -10.9035 -2.04593e-11 0 0 
203 85 84 1.12246 -10.9035 -1.01283e-13 1.75428e-13 -0 
204 85 86 1.12246 -10.9035 1.01283e-13 1.75428e-13 -0 
205 87 89 1.12246 -10.9035 2.02567e-11 -0 -0 
206 87 86 1.12246 -10.9035 5.06417e-12 -8.7714e-12 0 
207 87 88 1.12246 -10.9035 5.06417e-12 8.7714e-12 -0 
208 89 91 1.12246 -10.9035 -2.04593e-11 0 0 
209 89 88 1.12246 -10.9035 -1.01283e-13 1.75428e-13 -0 
210 89 90 1.12246 -10.9035 -5.06417e-12 -8.7714e-12 0 
211 91 93 1.12246 -10.9035 2.02567e-11 -0 -0 
212 91 90 1.12246 -10.9035 -1.01283e-13 1.75428e-13 -0 
213 91 92 1.12246 -10.9035 5.06417e-12 8.7714e-12 -0 
214 93 95 1.12246 -10.9035 -2.04593e-11 0 0 
215 93 92 1.12246 -10.9035 -1.01283e-13 1.75428e-13 -0 
216 93 94 1.12246 -10.9035 1.01283e-13 1.75428e-13 -0 
217 95 97 1.12246 -10.9035 2.02567e-13 -0 -0 
218 95 94 1.12246 -10.9035 5.06417e-12 -8.7714e-12 0 
219 95 96 1.12246 -10.9035 5.06417e-12 8.7714e-12 -0 
220 97 99 1.12246 -10.9035 2.02567e-13 -0 -0 
221 97 96 1.12246 -10.9035 5.06417e-12 -8.7714e-12 0 
222 97 98 1.12246 -10.9035 5.06417e-12 8.7714e-12 -0 
223 99 1551 1.12246 -10.9035 2.02567e-11 -0 -0 
224 99 98 1.12246 -10.9035 5.06417e-12 -8.7714e-12 0 
225 99 100 1.12246 -10.9035 1.01283e-13 1.75428e-13 -0 
226 52 54 1.12246 -10.9035 -1.2154e-12 0 0 
227 52 101 1.12246 -10.9035 7.08984e-13 -1.228e-12 0 
228 52 103 1.12246 -10.9035 -7.08984e-13 -1.228e-12 0 
229 54 56 1.12246 -10.9035 -1.2154e-12 0 0 
230 54 103 1.12246 -10.9035 6.07701e-13 -1.05257e-12 0 
231 54 105 1.12246 -10.9035 -7.08984e-13 -1.228e-12 0 
232 56 58 1.12246 -10.9035 2.02567e-13 -0 -0 
233 56 105 1.12246 -10.9035 6.07701e-13 -1.05257e-12 0 
234 56 107 1.12246 -10.9035 -6.07701e-13 -1.05257e-12 0 
235 58 60 1.12246 -10.9035 2.02567e-13 -0 -0 
236 58 107 1.12246 -10.9035 6.07701e-13 -1.05257e-12 0 
237 58 109 1.12246 -10.9035 -6.07701e-13 -1.05257e-12 0 
238 60 62 1.12246 -10.9035 2.02567e-13 -0 -0 
239 60 109 1.12246 -10.9035 6.07701e-13 -1.05257e-12 0 
240 60 111 1.12246 -10.9035 -6.07701e-13 -1.05257e-12 0 
241 62 64 1.12246 -10.9035 5.06417e-12 -0 -0 
242 62 111 1.12246 -10.9035 6.07701e-13 -1.05257e-12 0 
243 62 113 1.12246 -10.9035 -6.07701e-13 -1.05257e-12 0 
244 64 66 1.12246 -10.9035 -5.26674e-12 0 0 
245 64 113 1.12246 -10.9035 -5.06417e-13 8.7714e-13 -0 
246 64 115 1.12246 -10.9035 -1.92439e-12 -3.33313e-12 0 
247 66 68 1.12246 -10.9035 2.02567e-13 -0 -0 
248 66 115 1.12246 -10.9035 6.07701e-13 -1.05257e-12 0 
249 66 117 1.12246 -10.9035 -2.93722e-12 -5.08741e-12 0 
250 68 70 1.12246 -10.9035 2.02567e-13 -0 -0 
251 68 117 1.12246 -10.9035 -1.92439e-12 3.33313e-12 -0 
252 68 119 1.12246 -10.9035 -2.93722e-12 -5.08741e-12 0 
253 70 72 1.12246 -10.9035 2.02567e-13 -0 -0 
254 70 119 1.12246 -10.9035 -1.92439e-12 3.33313e-12 -0 
255 70 121 1.12246 -10.9035 -2.93722e-12 -5.08741e-12 0 
256 72 74 1.12246 -10.9035 -1.01283e-11 0 0 
257 72 121 1.12246 -10.9035 -1.92439e-12 3.33313e-12 -0 
258 72 123 1.12246 -10.9035 -2.93722e-12 -5.08741e-12 0 
259 74 76 1.12246 -10.9035 1.01283e-11 -0 -0 
260 74 123 1.12246 -10.9035 6.07701e-13 -1.05257e-12 0 
261 74 125 1.12246 -10.9035 -6.07701e-13 -1.05257e-12 0 
262 76 78 1.12246 -10.9035 -1.01283e-11 0 0 
263 76 125 1.12246 -10.9035 -1.92439e-12 3.33313e-12 -0 
264 76 127 1.12246 -10.9035 -6.07701e-13 -1.05257e-12 0 
265 78 80 1.12246 -10.9035 1.01283e-11 -0 -0 
266 78 127 1.12246 -10.9035 2.93722e-12 -5.08741e-12 0 
267 78 129 1.12246 -10.9035 -6.07701e-13 -1.05257e-12 0 
268 80 82 1.12246 -10.9035 -2.04593e-11 0 0 
269 80 129 1.12246 -10.9035 -1.92439e-12 3.33313e-12 -0 
270 80 131 1.12246 -10.9035 -6.07701e-13 -1.05257e-12 0 
271 82 84 1.12246 -10.9035 2.02567e-11 -0 -0 
272 82 131 1.12246 -10.9035 5.67187e-12 -9.82397e-12 0 
273 82 133 1.12246 -10.9035 -6.07701e-13 -1.05257e-12 0 
274 84 86 1.12246 -10.9035 2.02567e-13 -0 -0 
275 84 133 1.12246 -10.9035 -4.65904e-12 8.06969e-12 -0 
276 84 135 1.12246 -10.9035 -6.07701e-13 -1.05257e-12 0 
277 86 88 1.12246 -10.9035 2.02567e-13 -0 -0 
278 86 135 1.12246 -10.9035 6.07701e-13 -1.05257e-12 0 
279 86 137 1.12246 -10.9035 -5.67187e-12 -9.82397e-12 0 
280 88 90 1.12246 -10.9035 -2.04593e-11 0 0 
281 88 137 1.12246 -10.9035 -4.65904e-12 8.06969e-12 -0 
282 88 139 1.12246 -10.9035 -6.07701e-13 -1.05257e-12 0 
283 90 92 1.12246 -10.9035 2.02567e-11 -0 -0 
284 90 139 1.12246 -10.9035 5.67187e-12 -9.82397e-12 0 
285 90 141 1.12246 -10.9035 -6.07701e-13 -1.05257e-12 0 
286 92 94 1.12246 -10.9035 2.02567e-13 -0 -0 
287 92 141 1.12246 -10.9035 -4.65904e-12 8.06969e-12 -0 
288 92 143 1.12246 -10.9035 -6.07701e-13 -1.05257e-12 0 
289 94 96 1.12246 -10.9035 2.02567e-13 -0 -0 
290 94 143 1.12246 -10.9035 6.07701e-13 -1.05257e-12 0 
291 94 145 1.12246 -10.9035 -5.67187e-12 -9.82397e-12 0 
292 96 98 1.12246 -10.9035 2.02567e-13 -0 -0 
293 96 145 1.12246 -10.9035 -4.65904e-12 8.06969e-12 -0 
294 96 147 1.12246 -10.9035 -5.67187e-12 -9.82397e-12 0 
295 98 100 1.12246 -10.9035 -2.04593e-11 0 0 
296 98 147 1.12246 -10.9035 -4.65904e-12 8.06969e-12 -0 
297 98 149 1.12246 -10.9035 -5.67187e-12 -9.82397e-12 0 
298 100 1552 1.12246 -10.9035 -2.04593e-11 0 0 
299 100 149 1.12246 -10.9035 6.07701e-13 -1.05257e-12 0 
300 100 1601 1.12246 -10.9035 4.65904e-12 8.06969e-12 -0 
301 101 103 1.12246 -10.9035 -1.2154e-12 0 0 
302 101 1650 1.12246 -10.9035 1.92439e-12 -3.33313e-12 0 
303 101 102 1.12246 -10.9035 -2.93722e-12 -5.08741e-12 0 
304 103 105 1.12246 -10.9035 -1.2154e-12 0 0 
305 103 102 1.12246 -10.9035 2.93722e-12 -5.08741e-12 0 
306 103 104 1.12246 -10.9035 -2.83594e-12 -4.91199e-12 0 
307 105 107 1.12246 -10.9035 2.02567e-13 -0 -0 
308 105 104 1.12246 -10.9035 2.93722e-12 -5.08741e-12 0 
309 105 106 1.12246 -10.9035 -2.83594e-12 -4.91199e-12 0 
310 107 109 1.12246 -10.9035 2.02567e-13 -0 -0 
311 107 106 1.12246 -10.9035 2.83594e-12 -4.91199e-12 0 
312 107 108 1.12246 -10.9035 -2.83594e-12 -4.91199e-12 0 
313 109 111 1.12246 -10.9035 2.02567e-13 -0 -0 
314 109 108 1.12246 -10.9035 2.83594e-12 -4.91199e-12 0 
315 109 110 1.12246 -10.9035 -2.83594e-12 -4.91199e-12 0 
316 111 113 1.12246 -10.9035 2.02567e-13 -0 -0 
317 111 110 1.12246 -10.9035 2.83594e-12 -4.91199e-12 0 
318 111 112 1.12246 -10.9035 -2.83594e-12 -4.91199e-12 0 
319 113 115 1.12246 -10.9035 2.02567e-13 -0 -0 
320 113 112 1.12246 -10.9035 2.83594e-12 -4.91199e-12 0 
321 113 114 1.12246 -10.9035 -1.62054e-12 -2.80685e-12 0 
322 115 117 1.12246 -10.9035 -1.01283e-11 0 0 
323 115 114 1.12246 -10.9035 4.15262e-12 -7.19255e-12 0 
324 115 116 1.12246 -10.9035 -2.83594e-12 -4.91199e-12 0 
325 117 119 1.12246 -10.9035 2.02567e-13 -0 -0 
326 117 116 1.12246 -10.9035 5.26674e-12 -9.12226e-12 0 
327 117 118 1.12246 -10.9035 -4.05134e-13 -7.01712e-13 0 
328 119 121 1.12246 -10.9035 2.02567e-13 -0 -0 
329 119 118 1.12246 -10.9035 5.26674e-12 -9.12226e-12 0 
330 119 120 1.12246 -10.9035 -4.05134e-13 -7.01712e-13 0 
331 121 123 1.12246 -10.9035 2.02567e-13 -0 -0 
332 121 120 1.12246 -10.9035 5.26674e-12 -9.12226e-12 0 
333 121 122 1.12246 -10.9035 -4.05134e-13 -7.01712e-13 0 
334 123 125 1.12246 -10.9035 2.02567e-13 -0 -0 
335 123 122 1.12246 -10.9035 5.26674e-12 -9.12226e-12 0 
336 123 124 1.12246 -10.9035 -2.83594e-12 -4.91199e-12 0 
337 125 127 1.12246 -10.9035 1.01283e-11 -0 -0 
338 125 124 1.12246 -10.9035 2.83594e-12 -4.91199e-12 0 
339 125 126 1.12246 -10.9035 -4.05134e-13 -7.01712e-13 0 
340 127 129 1.12246 -10.9035 -1.01283e-11 0 0 
341 127 126 1.12246 -10.9035 2.83594e-12 -4.91199e-12 0 
342 127 128 1.12246 -10.9035 -5.26674e-12 -9.12226e-12 0 
343 129 131 1.12246 -10.9035 1.01283e-11 -0 -0 
344 129 128 1.12246 -10.9035 2.83594e-12 -4.91199e-12 0 
345 129 130 1.12246 -10.9035 -4.05134e-13 -7.01712e-13 0 
346 131 133 1.12246 -10.9035 -2.04593e-11 0 0 
347 131 130 1.12246 -10.9035 2.83594e-12 -4.91199e-12 0 
348 131 132 1.12246 -10.9035 -8.00139e-12 -1.38588e-11 0 
349 133 135 1.12246 -10.9035 2.02567e-11 -0 -0 
350 133 132 1.12246 -10.9035 2.83594e-12 -4.91199e-12 0 
351 133 134 1.12246 -10.9035 2.32952e-12 4.03485e-12 -0 
352 135 137 1.12246 -10.9035 -2.04593e-11 0 0 
353 135 134 1.12246 -10.9035 2.83594e-12 -4.91199e-12 0 
354 135 136 1.12246 -10.9035 -2.83594e-12 -4.91199e-12 0 
355 137 139 1.12246 -10.9035 2.02567e-11 -0 -0 
356 137 136 1.12246 -10.9035 8.00139e-12 -1.38588e-11 0 
357 137 138 1.12246 -10.9035 2.32952e-12 4.03485e-12 -0 
358 139 141 1.12246 -10.9035 -2.04593e-11 0 0 
359 139 138 1.12246 -10.9035 2.83594e-12 -4.91199e-12 0 
360 139 140 1.12246 -10.9035 -8.00139e-12 -1.38588e-11 0 
361 141 143 1.12246 -10.9035 2.02567e-11 -0 -0 
362 141 140 1.12246 -10.9035 2.83594e-12 -4.91199e-12 0 
363 141 142 1.12246 -10.9035 2.32952e-12 4.03485e-12 -0 
364 143 145 1.12246 -10.9035 -2.04593e-11 0 0 
365 143 142 1.12246 -10.9035 2.83594e-12 -4.91199e-12 0 
366 143 144 1.12246 -10.9035 -2.83594e-12 -4.91199e-12 0 
367 145 147 1.12246 -10.9035 2.02567e-13 -0 -0 
368 145 144 1.12246 -10.9035 8.00139e-12 -1.38588e-11 0 
369 145 146 1.12246 -10.9035 2.32952e-12 4.03485e-12 -0 
370 147 149 1.12246 -10.9035 2.02567e-13 -0 -0 
371 147 146 1.12246 -10.9035 8.00139e-12 -1.38588e-11 0 
372 147 148 1.12246 -10.9035 2.32952e-12 4.03485e-12 -0 
373 149 1601 1.12246 -10.9035 2.02567e-11 -0 -0 
374 149 148 1.12246 -10.9035 8.00139e-12 -1.38588e-11 0 
375 149 150 1.12246 -10.9035 -2.83594e-12 -4.91199e-12 0 
376 102 104 1.12246 -10.9035 -1.2154e-12 0 0 
377 102 151 1.12246 -10.9035 -1.41797e-12 2.45599e-12 -0 
378 102 153 1.12246 -10.9035 1.41797e-12 2.45599e-12 -0 
379 104 106 1.12246 -10.9035 -1.2154e-12 0 0 
380 104 153 1.12246 -10.9035 -1.62054e-12 2.80685e-12 -0 
381 104 155 1.12246 -10.9035 1.41797e-12 2.45599e-12 -0 
382 106 108 1.12246 -10.9035 2.02567e-13 -0 -0 
383 106 155 1.12246 -10.9035 -1.62054e-12 2.80685e-12 -0 
384 106 157 1.12246 -10.9035 1.62054e-12 2.80685e-12 -0 
385 108 110 1.12246 -10.9035 2.02567e-13 -0 -0 
386 108 157 1.12246 -10.9035 -1.62054e-12 2.80685e-12 -0 
387 108 159 1.12246 -10.9035 1.62054e-12 2.80685e-12 -0 
388 110 112 1.12246 -10.9035 2.02567e-13 -0 -0 
389 110 159 1.12246 -10.9035 -1.62054e-12 2.80685e-12 -0 
390 110 161 1.12246 -10.9035 1.62054e-12 2.80685e-12 -0 
391 112 114 1.12246 -10.9035 5.06417e-12 -0 -0 
392 112 161 1.12246 -10.9035 -1.62054e-12 2.80685e-12 -0 
393 112 163 1.12246 -10.9035 1.62054e-12 2.80685e-12 -0 
394 114 116 1.12246 -10.9035 -5.26674e-12 0 0 
395 114 163 1.12246 -10.9035 -2.83594e-12 4.91199e-12 -0 
396 114 165 1.12246 -10.9035 4.05134e-13 7.01712e-13 -0 
397 116 118 1.12246 -10.9035 2.02567e-13 -0 -0 
398 116 165 1.12246 -10.9035 -1.62054e-12 2.80685e-12 -0 
399 116 167 1.12246 -10.9035 -7.08984e-13 -1.228e-12 0 
400 118 120 1.12246 -10.9035 2.02567e-13 -0 -0 
401 118 167 1.12246 -10.9035 -4.35519e-12 7.54341e-12 -0 
402 118 169 1.12246 -10.9035 -7.08984e-13 -1.228e-12 0 
403 120 122 1.12246 -10.9035 2.02567e-13 -0 -0 
404 120 169 1.12246 -10.9035 -4.35519e-12 7.54341e-12 -0 
405 120 171 1.12246 -10.9035 -7.08984e-13 -1.228e-12 0 
406 122 124 1.12246 -10.9035 -1.01283e-11 0 0 
407 122 171 1.12246 -10.9035 -4.35519e-12 7.54341e-12 -0 
408 122 173 1.12246 -10.9035 -7.08984e-13 -1.228e-12 0 
409 124 126 1.12246 -10.9035 1.01283e-11 -0 -0 
410 124 173 1.12246 -10.9035 -1.62054e-12 2.80685e-12 -0 
411 124 175 1.12246 -10.9035 1.62054e-12 2.80685e-12 -0 
412 126 128 1.12246 -10.9035 -1.01283e-11 0 0 
413 126 175 1.12246 -10.9035 -4.35519e-12 7.54341e-12 -0 
414 126 177 1.12246 -10.9035 1.62054e-12 2.80685e-12 -0 
415 128 130 1.12246 -10.9035 1.01283e-11 -0 -0 
416 128 177 1.12246 -10.9035 7.08984e-13 -1.228e-12 0 
417 128 179 1.12246 -10.9035 1.62054e-12 2.80685e-12 -0 
418 130 132 1.12246 -10.9035 -2.04593e-11 0 0 
419 130 179 1.12246 -10.9035 -4.35519e-12 7.54341e-12 -0 
420 130 181 1.12246 -10.9035 1.62054e-12 2.80685e-12 -0 
421 132 134 1.12246 -10.9035 2.02567e-11 -0 -0 
422 132 181 1.12246 -10.9035 3.24107e-12 -5.6137e-12 0 
423 132 183 1.12246 -10.9035 1.62054e-12 2.80685e-12 -0 
424 134 136 1.12246 -10.9035 2.02567e-13 -0 -0 
425 134 183 1.12246 -10.9035 -6.88728e-12 1.19291e-11 -0 
426 134 185 1.12246 -10.9035 1.62054e-12 2.80685e-12 -0 
427 136 138 1.12246 -10.9035 2.02567e-13 -0 -0 
428 136 185 1.12246 -10.9035 -1.62054e-12 2.80685e-12 -0 
429 136 187 1.12246 -10.9035 -3.24107e-12 -5.6137e-12 0 
430 138 140 1.12246 -10.9035 -2.04593e-11 0 0 
431 138 187 1.12246 -10.9035 -6.88728e-12 1.19291e-11 -0 
432 138 189 1.12246 -10.9035 1.62054e-12 2.80685e-12 -0 
433 140 142 1.12246 -10.9035 2.02567e-11 -0 -0 
434 140 189 1.12246 -10.9035 3.24107e-12 -5.6137e-12 0 
435 140 191 1.12246 -10.9035 1.62054e-12 2.80685e-12 -0 
436 142 144 1.12246 -10.9035 2.02567e-13 -0 -0 
437 142 191 1.12246 -10.9035 -6.88728e-12 1.19291e-11 -0 
438 142 193 1.12246 -10.9035 1.62054e-12 2.80685e-12 -0 
439 144 146 1.12246 -10.9035 2.02567e-13 -0 -0 
440 144 193 1.12246 -10.9035 -1.62054e-12 2.80685e-12 -0 
441 144 195 1.12246 -10.9035 -3.24107e-12 -5.6137e-12 0 
442 146 148 1.12246 -10.9035 2.02567e-13 -0 -0 
443 146 195 1.12246 -10.9035 -6.88728e-12 1.19291e-11 -0 
444 146 197 1.12246 -10.9035 -3.24107e-12 -5.6137e-12 0 
445 148 150 1.12246 -10.9035 -2.04593e-11 0 0 
446 148 197 1.12246 -10.9035 -6.88728e-12 1.19291e-11 -0 
447 148 199 1.12246 -10.9035 -3.24107e-12 -5.6137e-12 0 
448 150 1602 1.12246 -10.9035 -2.04593e-11 0 0 
449 150 199 1.12246 -10.9035 -1.62054e-12 2.80685e-12 -0 
450 150 1651 1.12246 -10.9035 6.88728e-12 1.19291e-11 -0 
451 151 153 1.12246 -10.9035 -1.2154e-12 0 0 
452 151 1700 1.12246 -10.9035 -4.05134e-13 7.01712e-13 -0 
453 151 152 1.12246 -10.9035 -7.08984e-13 -1.228e-12 0 
454 153 155 1.12246 -10.9035 -1.2154e-12 0 0 
455 153 152 1.12246 -10.9035 7.08984e-13 -1.228e-12 0 
456 153 154 1.12246 -10.9035 -6.07701e-13 -1.05257e-12 0 
457 155 157 1.12246 -10.9035 2.02567e-13 -0 -0 
458 155 154 1.12246 -10.9035 7.08984e-13 -1.228e-12 0 
459 155 156 1.12246 -10.9035 -6.07701e-13 -1.05257e-12 0 
460 157 159 1.12246 -10.9035 2.02567e-13 -0 -0 
461 157 156 1.12246 -10.9035 6.07701e-13 -1.05257e-12 0 
462 157 158 1.12246 -10.9035 -6.07701e-13 -1.05257e-12 0 
463 159 161 1.12246 -10.9035 2.02567e-13 -0 -0 
464 159 158 1.12246 -10.9035 6.07701e-13 -1.05257e-12 0 
465 159 160 1.12246 -10.9035 -6.07701e-13 -1.05257e-12 0 
466 161 163 1.12246 -10.9035 2.02567e-13 -0 -0 
467 161 160 1.12246 -10.9035 6.07701e-13 -1.05257e-12 0 
468 161 162 1.12246 -10.9035 -6.07701e-13 -1.05257e-12 0 
469 163 165 1.12246 -10.9035 2.02567e-13 -0 -0 
470 163 162 1.12246 -10.9035 6.07701e-13 -1.05257e-12 0 
471 163 164 1.12246 -10.9035 5.06417e-13 8.7714e-13 -0 
472 165 167 1.12246 -10.9035 -1.01283e-11 0 0 
473 165 164 1.12246 -10.9035 1.92439e-12 -3.33313e-12 0 
474 165 166 1.12246 -10.9035 -6.07701e-13 -1.05257e-12 0 
475 167 169 1.12246 -10.9035 2.02567e-13 -0 -0 
476 167 166 1.12246 -10.9035 2.93722e-12 -5.08741e-12 0 
477 167 168 1.12246 -10.9035 1.92439e-12 3.33313e-12 -0 
478 169 171 1.12246 -10.9035 2.02567e-13 -0 -0 
479 169 168 1.12246 -10.9035 2.93722e-12 -5.08741e-12 0 
480 169 170 1.12246 -10.9035 1.92439e-12 3.33313e-12 -0 
481 171 173 1.12246 -10.9035 2.02567e-13 -0 -0 
482 171 170 1.12246 -10.9035 2.93722e-12 -5.08741e-12 0 
483 171 172 1.12246 -10.9035 1.92439e-12 3.33313e-12 -0 
484 173 175 1.12246 -10.9035 2.02567e-13 -0 -0 
485 173 172 1.12246 -10.9035 2.93722e-12 -5.08741e-12 0 
486 173 174 1.12246 -10.9035 -6.07701e-13 -1.05257e-12 0 
487 175 177 1.12246 -10.9035 1.01283e-11 -0 -0 
488 175 174 1.12246 -10.9035 6.07701e-13 -1.05257e-12 0 
489 175 176 1.12246 -10.9035 1.92439e-12 3.33313e-12 -0 
490 177 179 1.12246 -10.9035 -1.01283e-11 0 0 
491 177 176 1.12246 -10.9035 6.07701e-13 -1.05257e-12 0 
492 177 178 1.12246 -10.9035 -2.93722e-12 -5.08741e-12 0 
493 179 181 1.12246 -10.9035 1.01283e-11 -0 -0 
494 179 178 1.12246 -10.9035 6.07701e-13 -1.05257e-12 0 
495 179 180 1.12246 -10.9035 1.92439e-12 3.33313e-12 -0 
496 181 183 1.12246 -10.9035 -2.04593e-11 0 0 
497 181 180 1.12246 -10.9035 6.07701e-13 -1.05257e-12 0 
498 181 182 1.12246 -10.9035 -5.67187e-12 -9.82397e-12 0 
499 183 185 1.12246 -10.9035 2.02567e-11 -0 -0 
500 183 182 1.12246 -10.9035 6.07701e-13 -1.05257e-12 0 
501 183 184 1.12246 -10.9035 4.65904e-12 8.06969e-12 -0 
502 185 187 1.12246 -10.9035 -2.04593e-11 0 0 
503 185 184 1.12246 -10.9035 6.07701e-13 -1.05257e-12 0 
504 185 186 1.12246 -10.9035 -6.07701e-13 -1.05257e-12 0 
505 187 189 1.12246 -10.9035 2.02567e-11 -0 -0 
506 187 186 1.12246 -10.9035 5.67187e-12 -9.82397e-12 0 
507 187 188 1.12246 -10.9035 4.65904e-12 8.06969e-12 -0 
508 189 191 1.12246 -10.9035 -2.04593e-11 0 0 
509 189 188 1.12246 -10.9035 6.07701e-13 -1.05257e-12 0 
510 189 190 1.12246 -10.9035 -5.67187e-12 -9.82397e-12 0 
511 191 193 1.12246 -10.9035 2.02567e-11 -0 -0 
512 191 190 1.12246 -10.9035 6.07701e-13 -1.05257e-12 0 
513 191 192 1.12246 -10.9035 4.65904e-12 8.06969e-12 -0 
514 193 195 1.12246 -10.9035 -2.04593e-11 0 0 
515 193 192 1.12246 -10.9035 6.07701e-13 -1.05257e-12 0 
516 193 194 1.12246 -10.9035 -6.07701e-13 -1.05257e-12 0 
517 195 197 1.12246 -10.9035 2.02567e-13 -0 -0 
518 195 194 1.12246 -10.9035 5.67187e-12 -9.82397e-12 0 
519 195 196 1.12246 -10.9035 4.65904e-12 8.06969e-12 -0 
520 197 199 1.12246 -10.9035 2.02567e-13 -0 -0 
521 197 196 1.12246 -10.9035 5.67187e-12 -9.82397e-12 0 
522 197 198 1.12246 -10.9035 4.65904e-12 8.06969e-12 -0 
523 199 1651 1.12246 -10.9035 2.02567e-11 -0 -0 
524 199 198 1.12246 -10.9035 5.67187e-12 -9.82397e-12 0 
525 199 200 1.12246 -10.9035 -6.07701e-13 -1.05257e-12 0 
526 152 154 1.12246 -10.9035 -1.2154e-12 0 0 
527 152 201 1.12246 -10.9035 7.08984e-13 -1.228e-12 0 
528 152 203 1.12246 -10.9035 -7.08984e-13 -1.228e-12 0 
529 154 156 1.12246 -10.9035 -1.2154e-12 0 0 
530 154 203 1.12246 -10.9035 6.07701e-13 -1.05257e-12 0 
531 154 205 1.12246 -10.9035 -7.08984e-13 -1.228e-12 0 
532 156 158 1.12246 -10.9035 2.02567e-13 -0 -0 
533 156 205 1.12246 -10.9035 6.07701e-13 -1.05257e-12 0 
534 156 207 1.12246 -10.9035 -6.07701e-13 -1.05257e-12 0 
535 158 160 1.12246 -10.9035 2.02567e-13 -0 -0 
536 158 207 1.12246 -10.9035 6.07701e-13 -1.05257e-12 0 
537 158 209 1.12246 -10.9035 -6.07701e-13 -1.05257e-12 0 
538 160 162 1.12246 -10.9035 2.02567e-13 -0 -0 
539 160 209 1.12246 -10.9035 6.07701e-13 -1.05257e-12 0 
540 160 211 1.12246 -10.9035 -6.07701e-13 -1.05257e-12 0 
541 162 164 1.12246 -10.9035 5.06417e-12 -0 -0 
542 162 211 1.12246 -10.9035 6.07701e-13 -1.05257e-12 0 
543 162 213 1.12246 -10.9035 -6.07701e-13 -1.05257e-12 0 
544 164 166 1.12246 -10.9035 -5.26674e-12 0 0 
545 164 213 1.12246 -10.9035 -5.06417e-13 8.7714e-13 -0 
546 164 215 1.12246 -10.9035 -1.92439e-12 -3.33313e-12 0 
547 166 168 1.12246 -10.9035 2.02567e-13 -0 -0 
548 166 215 1.12246 -10.9035 6.07701e-13 -1.05257e-12 0 
549 166 217 1.12246 -10.9035 -2.93722e-12 -5.08741e-12 0 
550 168 170 1.12246 -10.9035 2.02567e-13 -0 -0 
551 168 217 1.12246 -10.9035 -1.92439e-12 3.33313e-12 -0 
552 168 219 1.12246 -10.9035 -2.93722e-12 -5.08741e-12 0 
553 170 172 1.12246 -10.9035 2.02567e-13 -0 -0 
554 170 219 1.12246 -10.9035 -1.92439e-12 3.33313e-12 -0 
555 170 221 1.12246 -10.9035 -2.93722e-12 -5.08741e-12 0 
556 172 174 1.12246 -10.9035 -1.01283e-11 0 0 
557 172 221 1.12246 -10.9035 -1.92439e-12 3.33313e-12 -0 
558 172 223 1.12246 -10.9035 -2.93722e-12 -5.08741e-12 0 
559 174 176 1.12246 -10.9035 1.01283e-11 -0 -0 
560 174 223 1.12246 -10.9035 6.07701e-13 -1.05257e-12 0 