ITEM: TIMESTEP
0
ITEM: NUMBER OF ATOMS
32
ITEM: BOX BOUNDS pp pp pp
0.0000000000000000e+00 8.0000000000000000e+00
0.0000000000000000e+00 8.0000000000000000e+00
0.0000000000000000e+00 8.0000000000000000e+00
ITEM: ATOMS id type x y z
1 1 0 0 0
2 1 2 2 0
3 1 2 0 2
4 1 0 2 2
5 1 4 0 0
6 1 6 2 0
7 1 6 0 2
8 1 4 2 2
9 1 0 0 4
10 1 2 2 4
11 1 2 0 6
12 1 0 2 6
13 1 4 0 4
14 1 6 2 4
15 1 6 0 6
16 1 4 2 6
17 1 0 4 0
18 1 2 6 0
19 1 2 4 2
20 1 0 6 2
21 1 4 4 0
22 1 6 6 0
23 1 6 4 2
24 1 4 6 2
25 1 0 4 4
26 1 2 6 4
27 1 2 4 6
28 1 0 6 6
29 1 4 4 4
30 1 6 6 4
31 1 6 4 6
32 1 4 6 6
ITEM: TIMESTEP
103
ITEM: NUMBER OF ATOMS
32
ITEM: BOX BOUNDS pp pp pp
3.8518675309754985e-01 7.6148132469024574e+00
3.8518675309754985e-01 7.6148132469024574e+00
3.8518675309754985e-01 7.6148132469024574e+00
ITEM: ATOMS id type x y z
1 1 0.385187 0.385187 0.385187
2 1 2.19259 2.19259 0.385187
3 1 2.19259 0.385187 2.19259
4 1 0.385187 2.19259 2.19259
5 1 4 0.385187 0.385187
6 1 5.80741 2.19259 0.385187
7 1 5.80741 0.385187 2.19259
8 1 4 2.19259 2.19259
17 1 0.385187 4 0.385187
19 1 2.19259 4 2.19259
23 1 5.80741 4 2.19259
21 1 4 4 0.385187
9 1 0.385187 0.385187 4
29 1 4 4 4
10 1 2.19259 2.19259 4
13 1 4 0.385187 4
25 1 0.385187 4 4
14 1 5.80741 2.19259 4
31 1 5.80741 4 5.80741
27 1 2.19259 4 5.80741
11 1 2.19259 0.385187 5.80741
12 1 0.385187 2.19259 5.80741
16 1 4 2.19259 5.80741
15 1 5.80741 0.385187 5.80741
24 1 4 5.80741 2.19259
18 1 2.19259 5.80741 0.385187
22 1 5.80741 5.80741 0.385187
20 1 0.385187 5.80741 2.19259
26 1 2.19259 5.80741 4
30 1 5.80741 5.80741 4
32 1 4 5.80741 5.80741
28 1 0.385187 5.80741 5.80741
