ITEM: TIMESTEP
0
ITEM: NUMBER OF ATOMS
3000
ITEM: BOX BOUNDS pp pp pp
-7.0514196525667646e-14 5.6123102415468580e+01
-7.3280502622411900e-14 5.8324838917189894e+01
-2.8061551207734253e-01 2.8061551207734253e-01
ITEM: ATOMS id type radius x y z vx vy vz fx fy fz c_c1 c_c2 c_3[1] c_3[2] c_3[3] c_3[4] c_3[5] c_3[6]
1 1 0.5 -7.05142e-14 -7.32804e-14 0 0.00422583 0.00165215 0 -4.30455e-11 -3.59628e-11 0 5.38973e-06 -32.7104 -9.35022e-06 -1.42919e-06 -0 -3.65561e-06 -0 -0
3 2 0.5 1.12246 -7.32804e-14 0 0.00295345 0.00135125 0 5.06417e-13 -3.73662e-11 0 2.76166e-06 -32.7104 -4.56729e-06 -9.56007e-07 -0 -2.0896e-06 -0 -0
5 2 0.5 2.24492 -7.32804e-14 0 0.00545212 0.00185054 0 1.92439e-12 -3.73662e-11 0 8.67867e-06 -32.7104 -1.55643e-05 -1.79304e-06 -0 -5.28277e-06 -0 -0
7 1 0.5 3.36739 -7.32804e-14 0 -0.00548826 0.00700326 0 0 -3.75416e-11 0 2.07258e-05 -32.7104 -1.57713e-05 -2.56802e-05 -0 2.01249e-05 -0 -0
9 2 0.5 4.48985 -7.32804e-14 0 -0.00191168 0.00483207 0 0 -3.75416e-11 0 7.06947e-06 -32.7104 -1.91349e-06 -1.22254e-05 -0 4.83667e-06 -0 -0
11 1 0.5 5.61231 -7.32804e-14 0 0.000916585 0.00127414 0 0 -3.75416e-11 0 6.44961e-07 -32.7104 -4.39884e-07 -8.50016e-07 -0 -6.1149e-07 -0 -0
13 1 0.5 6.73477 -7.32804e-14 0 -0.00754167 0.00233745 0 2.32952e-12 -3.73662e-11 0 1.63207e-05 -32.7104 -2.97806e-05 -2.86075e-06 -0 9.23014e-06 -0 -0
15 1 0.5 7.85723 -7.32804e-14 0 0.00551665 -0.00717999 0 -7.69754e-12 -3.71908e-11 0 2.14638e-05 -32.7104 -1.59349e-05 -2.69927e-05 -0 2.07395e-05 -0 -0
17 2 0.5 8.9797 -7.32804e-14 0 -0.00469143 0.00361298 0 2.06618e-11 -3.71908e-11 0 9.1795e-06 -32.7104 -1.15241e-05 -6.83484e-06 -0 8.87502e-06 -0 -0
19 1 0.5 10.1022 -7.32804e-14 0 -0.000754801 -0.00725047 0 1.03309e-11 -3.71908e-11 0 1.39118e-05 -32.7104 -2.98301e-07 -2.75252e-05 -0 -2.86548e-06 -0 -0
21 2 0.5 11.2246 -7.32804e-14 0 -0.00043906 -0.00116914 0 1.03309e-11 -3.71908e-11 0 4.08318e-07 -32.7104 -1.0093e-07 -7.15682e-07 -0 -2.68775e-07 -0 -0
23 1 0.5 12.3471 -7.32804e-14 0 0.00347264 -0.00564736 0 4.96289e-12 -3.73662e-11 0 1.15066e-05 -32.7104 -6.31421e-06 -1.6699e-05 -0 1.02684e-05 -0 -0
25 2 0.5 13.4695 -7.32804e-14 0 0.00280973 0.000715531 0 1.52938e-11 -3.73662e-11 0 2.20084e-06 -32.7104 -4.13359e-06 -2.68053e-07 -0 -1.05267e-06 -0 -0
27 2 0.5 14.592 -7.32804e-14 0 -0.000195715 0.0031768 0 -2.52196e-11 -3.73662e-11 0 2.65213e-06 -32.7104 -2.00519e-08 -5.28418e-06 -0 3.25547e-07 -0 -0
29 2 0.5 15.7145 -7.32804e-14 0 0.00100898 0.00502007 0 2.56247e-11 -3.73662e-11 0 6.86416e-06 -32.7104 -5.33039e-07 -1.31952e-05 -0 -2.65211e-06 -0 -0
31 2 0.5 16.8369 -7.32804e-14 0 -0.00210738 -0.00370664 0 -4.04121e-11 -3.73662e-11 0 4.75957e-06 -32.7104 -2.32533e-06 -7.1938e-06 -0 -4.08998e-06 -0 -0
33 2 0.5 17.9594 -7.32804e-14 0 -0.005044 0.00125762 0 5.10469e-11 -3.75416e-11 0 7.07474e-06 -32.7104 -1.33213e-05 -8.28105e-07 -0 3.32142e-06 -0 -0
35 2 0.5 19.0819 -7.32804e-14 0 -0.00458696 -0.00232303 0 -4.0716e-11 -3.75416e-11 0 6.9211e-06 -32.7104 -1.10166e-05 -2.82557e-06 -0 -5.57928e-06 -0 -0
37 2 0.5 20.2043 -7.32804e-14 0 0.00139706 -0.00326331 0 6.08714e-11 -3.73662e-11 0 3.29893e-06 -32.7104 -1.02195e-06 -5.57589e-06 -0 2.38712e-06 -0 -0
39 1 0.5 21.3268 -7.32804e-14 0 0.00373273 0.00673572 0 -5.05404e-11 -3.73662e-11 0 1.55255e-05 -32.7104 -7.29545e-06 -2.37556e-05 -0 -1.31647e-05 -0 -0
41 1 0.5 22.4492 -7.32804e-14 0 -0.00147153 0.00582898 0 5.10469e-11 -3.75416e-11 0 9.46205e-06 -32.7104 -1.1338e-06 -1.77903e-05 -0 4.49119e-06 -0 -0
43 2 0.5 23.5717 -7.32804e-14 0 -0.00690204 -0.000519199 0 -4.0716e-11 -3.75416e-11 0 1.25422e-05 -32.7104 -2.49433e-05 -1.41128e-07 -0 -1.87633e-06 -0 -0
45 1 0.5 24.6942 -7.32804e-14 0 0.00682561 0.000404473 0 4.08172e-11 -3.73662e-11 0 1.22398e-05 -32.7104 -2.43939e-05 -8.56425e-08 -0 -1.44554e-06 -0 -0
47 1 0.5 25.8166 -7.32804e-14 0 -0.00504185 0.00703329 0 2.01554e-11 -3.73662e-11 0 1.96055e-05 -32.7104 -1.331e-05 -2.5901e-05 -0 1.85672e-05 -0 -0
49 2 0.5 26.9391 -7.32804e-14 0 0.00104917 -0.00290933 0 2.98786e-11 -3.73662e-11 0 2.5041e-06 -32.7104 -5.76346e-07 -4.43184e-06 -0 1.59823e-06 -0 -0
2 1 0.5 0.561231 0.972081 0 -0.00100304 -0.00268893 0 -1.41797e-12 0 0 2.15629e-06 -32.7104 -5.26786e-07 -3.7858e-06 -0 -1.4122e-06 -0 -0
4 1 0.5 1.68369 0.972081 0 -0.00567721 0.0055517 0 -4.05134e-13 0 0 1.6507e-05 -32.7104 -1.6876e-05 -1.6138e-05 -0 1.65029e-05 -0 -0
6 1 0.5 2.80616 0.972081 0 0.00317434 -0.00717638 0 1.41797e-12 0 0 1.61208e-05 -32.7104 -5.27602e-06 -2.69655e-05 -0 1.19277e-05 -0 -0
8 2 0.5 3.92862 0.972081 0 -0.00526384 -0.00302216 0 0 0 0 9.64508e-06 -32.7104 -1.45079e-05 -4.78225e-06 -0 -8.32949e-06 -0 -0
10 1 0.5 5.05108 0.972081 0 -0.0065113 0.00550032 0 0 0 0 1.90199e-05 -32.7104 -2.2199e-05 -1.58407e-05 -0 1.87523e-05 -0 -0
12 1 0.5 6.17354 0.972081 0 -0.00153192 -0.00664852 0 4.86161e-12 0 0 1.21866e-05 -32.7104 -1.22877e-06 -2.31445e-05 -0 -5.33284e-06 -0 -0
14 1 0.5 7.296 0.972081 0 0.000192702 0.000494757 0 -1.51925e-11 0 0 7.38061e-08 -32.7104 -1.94438e-08 -1.2817e-07 -0 -4.99202e-08 -0 -0
16 2 0.5 8.41847 0.972081 0 0.00705773 -0.00149565 0 6.07701e-13 8.07794e-28 0 1.36263e-05 -32.7104 -2.60813e-05 -1.17128e-06 -0 5.52705e-06 -0 -0
18 2 0.5 9.54093 0.972081 0 -0.00677131 -0.00551413 0 -1.03309e-11 0 0 1.99638e-05 -32.7104 -2.40073e-05 -1.59204e-05 -0 -1.95501e-05 -0 -0
20 2 0.5 10.6634 0.972081 0 0.00420847 -0.00156007 0 -1.03309e-11 0 0 5.27396e-06 -32.7104 -9.27358e-06 -1.27434e-06 -0 3.43769e-06 -0 -0
22 1 0.5 11.7859 0.972081 0 0.000217985 0.000165887 0 -2.06618e-11 0 0 1.96443e-08 -32.7104 -2.48859e-08 -1.44095e-08 -0 -1.89337e-08 -0 -0
24 2 0.5 12.9083 0.972081 0 -0.00427338 -0.00222919 0 2.02567e-11 0 0 6.08188e-06 -32.7104 -9.56184e-06 -2.60192e-06 -0 -4.9879e-06 -0 -0
26 2 0.5 14.0308 0.972081 0 -0.00314123 -0.00462654 0 -2.5726e-11 0 0 8.18703e-06 -32.7104 -5.16651e-06 -1.12076e-05 -0 -7.60947e-06 -0 -0
28 1 0.5 15.1532 0.972081 0 0.00583842 -0.00598884 0 2.51183e-11 4.03897e-28 0 1.83137e-05 -32.7104 -1.7848e-05 -1.87795e-05 -0 1.83078e-05 -0 -0
30 1 0.5 16.2757 0.972081 0 -0.0046855 -0.00308622 0 -3.60569e-11 0 0 8.24111e-06 -32.7104 -1.14951e-05 -4.98716e-06 -0 -7.57151e-06 -0 -0
32 2 0.5 17.3982 0.972081 0 0.00536562 0.00614151 0 5.04392e-11 -4.03897e-28 0 1.74118e-05 -32.7104 -1.50744e-05 -1.97492e-05 -0 -1.72542e-05 -0 -0
34 1 0.5 18.5206 0.972081 0 0.0063782 -0.00115083 0 -3.0385e-11 -4.03897e-28 0 1.09971e-05 -32.7104 -2.13007e-05 -6.93452e-07 -0 3.84333e-06 -0 -0
36 1 0.5 19.6431 0.972081 0 -0.00430283 0.00401765 0 -9.72321e-12 0 0 9.07288e-06 -32.7104 -9.69408e-06 -8.4517e-06 -0 9.05159e-06 -0 -0
38 1 0.5 20.7655 0.972081 0 0.00426346 -0.00382427 0 -3.09927e-11 -4.03897e-28 0 8.58758e-06 -32.7104 -9.51751e-06 -7.65764e-06 -0 8.53708e-06 -0 -0
40 2 0.5 21.888 0.972081 0 -0.00199934 0.00474046 0 5.04392e-11 -4.03897e-28 0 6.92966e-06 -32.7104 -2.09302e-06 -1.17663e-05 -0 4.96256e-06 -0 -0
42 2 0.5 23.0105 0.972081 0 -0.00388288 -0.000299743 0 -3.0385e-11 -4.03897e-28 0 3.97061e-06 -32.7104 -7.89416e-06 -4.70359e-08 -0 -6.09399e-07 -0 -0
44 2 0.5 24.1329 0.972081 0 0.00115821 0.00718084 0 -9.72321e-12 0 0 1.38507e-05 -32.7104 -7.02391e-07 -2.69991e-05 -0 -4.35475e-06 -0 -0
46 1 0.5 25.2554 0.972081 0 0.00199141 0.00742052 0 -2.00541e-11 0 0 1.5454e-05 -32.7104 -2.07644e-06 -2.88315e-05 -0 -7.73738e-06 -0 -0
48 1 0.5 26.3779 0.972081 0 0.00304097 -0.000899885 0 -4.0716e-11 0 0 2.633e-06 -32.7104 -4.842e-06 -4.24007e-07 -0 1.43284e-06 -0 -0
50 1 0.5 27.5003 0.972081 0 0.00316485 0.000351287 0 1.03309e-11 0 0 2.65456e-06 -32.7104 -5.24453e-06 -6.46063e-08 -0 -5.82123e-07 -0 -0
51 2 0.5 -7.05142e-14 1.94416 0 0.00470401 0.00397381 0 -4.31468e-11 2.45599e-12 0 9.92714e-06 -32.7104 -1.1586e-05 -8.26824e-06 -0 -9.78755e-06 -0 -0
53 1 0.5 1.12246 1.94416 0 -0.00696622 -0.000822429 0 7.08984e-13 1.228e-12 0 1.28817e-05 -32.7104 -2.54093e-05 -3.54158e-07 -0 -2.99981e-06 -0 -0
55 1 0.5 2.24492 1.94416 0 0.0020788 0.00299509 0 2.12695e-12 1.228e-12 0 3.47983e-06 -32.7104 -2.26269e-06 -4.69698e-06 -0 -3.26003e-06 -0 -0
57 2 0.5 3.36739 1.94416 0 -0.00230569 0.00458549 0 0 1.75428e-12 0 6.89656e-06 -32.7104 -2.78356e-06 -1.10096e-05 -0 5.53586e-06 -0 -0
59 2 0.5 4.48985 1.94416 0 0.00446538 0.00288744 0 0 1.75428e-12 0 7.40288e-06 -32.7104 -1.04403e-05 -4.3654e-06 -0 -6.75102e-06 -0 -0
61 2 0.5 5.61231 1.94416 0 -0.00635032 -0.00749167 0 0 1.75428e-12 0 2.5251e-05 -32.7104 -2.11149e-05 -2.9387e-05 -0 -2.49099e-05 -0 -0
63 2 0.5 6.73477 1.94416 0 0.005412 -0.00414788 0 2.32952e-12 1.57885e-12 0 1.21723e-05 -32.7104 -1.53361e-05 -9.00846e-06 -0 1.17539e-05 -0 -0
65 2 0.5 7.85723 1.94416 0 0.0057183 -0.00493016 0 -7.59626e-12 1.228e-12 0 1.4924e-05 -32.7104 -1.71211e-05 -1.27268e-05 -0 1.47614e-05 -0 -0
67 1 0.5 8.9797 1.94416 0 0.00506752 -0.00730933 0 2.06618e-11 7.01712e-13 0 2.07099e-05 -32.7104 -1.34459e-05 -2.79739e-05 -0 1.93942e-05 -0 -0
69 1 0.5 10.1022 1.94416 0 0.00349225 0.00490647 0 1.03309e-11 7.01712e-13 0 9.49527e-06 -32.7104 -6.38571e-06 -1.26048e-05 -0 -8.97166e-06 -0 -0
71 2 0.5 11.2246 1.94416 0 0.00462502 -0.00224281 0 1.03309e-11 7.01712e-13 0 6.91701e-06 -32.7104 -1.12002e-05 -2.63381e-06 -0 5.43132e-06 -0 -0
73 1 0.5 12.3471 1.94416 0 -0.00552113 0.00139362 0 5.16546e-12 1.228e-12 0 8.48884e-06 -32.7104 -1.59608e-05 -1.01692e-06 -0 4.02874e-06 -0 -0
75 1 0.5 13.4695 1.94416 0 -0.00572027 -0.00430731 0 1.50912e-11 1.228e-12 0 1.34236e-05 -32.7104 -1.71329e-05 -9.7143e-06 -0 -1.2901e-05 -0 -0
77 2 0.5 14.592 1.94416 0 0.00235576 -0.00479265 0 -2.54221e-11 1.228e-12 0 7.46628e-06 -32.7104 -2.90578e-06 -1.20268e-05 -0 5.91161e-06 -0 -0
79 2 0.5 15.7145 1.94416 0 -0.00266899 0.00414055 0 2.54221e-11 1.228e-12 0 6.35326e-06 -32.7104 -3.72986e-06 -8.97666e-06 -0 5.78634e-06 -0 -0
81 1 0.5 16.8369 1.94416 0 -0.0022715 0.00213477 0 -4.06147e-11 1.228e-12 0 2.54389e-06 -32.7104 -2.70162e-06 -2.38618e-06 -0 2.539e-06 -0 -0
83 1 0.5 17.9594 1.94416 0 0.00101118 -0.00364605 0 5.08443e-11 1.40342e-12 0 3.74797e-06 -32.7104 -5.35366e-07 -6.96056e-06 -0 1.93041e-06 -0 -0
85 2 0.5 19.0819 1.94416 0 -0.00548053 0.000249101 0 -4.0716e-11 1.75428e-12 0 7.8797e-06 -32.7104 -1.57269e-05 -3.24906e-08 -0 7.14821e-07 -0 -0
87 2 0.5 20.2043 1.94416 0 0.00398222 -0.00715675 0 6.08714e-11 8.7714e-13 0 1.75607e-05 -32.7104 -8.30328e-06 -2.68182e-05 -0 1.49224e-05 -0 -0
89 1 0.5 21.3268 1.94416 0 0.00478515 0.000750969 0 -5.0743e-11 1.228e-12 0 6.14223e-06 -32.7104 -1.19892e-05 -2.95295e-07 -0 -1.88155e-06 -0 -0
91 1 0.5 22.4492 1.94416 0 -0.00492661 -0.000180414 0 5.08443e-11 1.40342e-12 0 6.36277e-06 -32.7104 -1.27085e-05 -1.70348e-08 -0 -4.6539e-07 -0 -0
93 2 0.5 23.5717 1.94416 0 -0.00118825 -0.00207396 0 -4.0716e-11 1.75428e-12 0 1.49573e-06 -32.7104 -7.39293e-07 -2.25217e-06 -0 -1.29035e-06 -0 -0
95 2 0.5 24.6942 1.94416 0 0.0011231 -0.00577803 0 4.08172e-11 8.7714e-13 0 9.07056e-06 -32.7104 -6.6046e-07 -1.74807e-05 -0 3.39781e-06 -0 -0
97 2 0.5 25.8166 1.94416 0 -0.00110034 0.00225998 0 2.01554e-11 8.7714e-13 0 1.65411e-06 -32.7104 -6.33946e-07 -2.67428e-06 -0 1.30205e-06 -0 -0
99 2 0.5 26.9391 1.94416 0 0.00065783 -0.00386465 0 3.00812e-11 1.228e-12 0 4.0234e-06 -32.7104 -2.26574e-07 -7.82023e-06 -0 1.33114e-06 -0 -0
52 1 0.5 0.561231 2.91624 0 -0.0016927 -0.00537343 0 -1.41797e-12 -1.05257e-12 0 8.30925e-06 -32.7104 -1.50023e-06 -1.51183e-05 -0 -4.76244e-06 -0 -0
54 1 0.5 1.68369 2.91624 0 0.00581223 -0.00580532 0 -6.07701e-13 -1.75428e-12 0 1.76672e-05 -32.7104 -1.76882e-05 -1.76462e-05 -0 1.76672e-05 -0 -0
56 2 0.5 2.80616 2.91624 0 -0.00640384 0.00421893 0 1.41797e-12 -2.45599e-12 0 1.5396e-05 -32.7104 -2.14723e-05 -9.31973e-06 -0 1.41463e-05 -0 -0
58 1 0.5 3.92862 2.91624 0 0.00728929 0.00212844 0 0 -2.45599e-12 0 1.50964e-05 -32.7104 -2.78208e-05 -2.37204e-06 -0 -8.12354e-06 -0 -0
60 1 0.5 5.05108 2.91624 0 0.0042132 0.00198264 0 0 -2.45599e-12 0 5.67631e-06 -32.7104 -9.29443e-06 -2.05819e-06 -0 -4.37375e-06 -0 -0
62 1 0.5 6.17354 2.91624 0 0.00688733 0.00507954 0 4.86161e-12 -2.45599e-12 0 1.91734e-05 -32.7104 -2.48371e-05 -1.35098e-05 -0 -1.83178e-05 -0 -0
64 1 0.5 7.296 2.91624 0 -0.00206337 0.00685295 0 -1.53951e-11 -2.10514e-12 0 1.34095e-05 -32.7104 -2.22923e-06 -2.45898e-05 -0 7.4038e-06 -0 -0
66 2 0.5 8.41847 2.91624 0 0.00515401 0.00362339 0 4.05134e-13 -1.75428e-12 0 1.03916e-05 -32.7104 -1.39088e-05 -6.87431e-06 -0 -9.77821e-06 -0 -0
68 1 0.5 9.54093 2.91624 0 0.0053969 0.000309234 0 -1.00271e-11 -1.57885e-12 0 7.65035e-06 -32.7104 -1.52506e-05 -5.00705e-08 -0 -8.73838e-07 -0 -0
70 1 0.5 10.6634 2.91624 0 -0.00294212 0.000402797 0 -1.00271e-11 -1.57885e-12 0 2.30863e-06 -32.7104 -4.53231e-06 -8.49524e-08 -0 6.20505e-07 -0 -0
72 2 0.5 11.7859 2.91624 0 -0.00405109 -0.00249753 0 -2.0358e-11 -1.57885e-12 0 5.9295e-06 -32.7104 -8.59297e-06 -3.26604e-06 -0 -5.29764e-06 -0 -0
74 2 0.5 12.9083 2.91624 0 0.00485763 0.00386402 0 2.02567e-11 -2.45599e-12 0 1.00864e-05 -32.7104 -1.23551e-05 -7.81766e-06 -0 -9.82792e-06 -0 -0
76 1 0.5 14.0308 2.91624 0 -0.00254612 0.00361481 0 -2.52196e-11 -2.28057e-12 0 5.11808e-06 -32.7104 -3.39436e-06 -6.84179e-06 -0 4.81908e-06 -0 -0
78 1 0.5 15.1532 2.91624 0 0.00360895 0.00701554 0 2.53209e-11 -1.75428e-12 0 1.6295e-05 -32.7104 -6.81962e-06 -2.57704e-05 -0 -1.32569e-05 -0 -0
80 1 0.5 16.2757 2.91624 0 0.00633733 -0.00462665 0 -3.55505e-11 -2.28057e-12 0 1.61183e-05 -32.7104 -2.10286e-05 -1.12081e-05 -0 1.53522e-05 -0 -0
82 1 0.5 17.3982 2.91624 0 0.00203961 -0.0026137 0 5.09456e-11 -2.28057e-12 0 2.87756e-06 -32.7104 -2.17818e-06 -3.57694e-06 -0 2.79127e-06 -0 -0
84 2 0.5 18.5206 2.91624 0 0.00617201 -0.00364209 0 -3.02838e-11 -1.92971e-12 0 1.34456e-05 -32.7104 -1.99458e-05 -6.94544e-06 -0 1.177e-05 -0 -0
86 1 0.5 19.6431 2.91624 0 -0.00321213 0.00349741 0 -1.02296e-11 -2.28057e-12 0 5.9035e-06 -32.7104 -5.40239e-06 -6.40462e-06 -0 5.88219e-06 -0 -0
88 2 0.5 20.7655 2.91624 0 -0.00597688 -0.0037918 0 -3.08915e-11 -1.92971e-12 0 1.31164e-05 -32.7104 -1.87046e-05 -7.52816e-06 -0 -1.18664e-05 -0 -0
90 1 0.5 21.888 2.91624 0 -0.00318212 0.00672052 0 5.09456e-11 -2.28057e-12 0 1.44752e-05 -32.7104 -5.30191e-06 -2.36486e-05 -0 1.11974e-05 -0 -0
92 1 0.5 23.0105 2.91624 0 0.00574633 -0.0046316 0 -3.02838e-11 -1.92971e-12 0 1.42607e-05 -32.7104 -1.72894e-05 -1.12321e-05 -0 1.39354e-05 -0 -0
94 2 0.5 24.1329 2.91624 0 -0.00471612 -0.00130291 0 -1.02296e-11 -2.28057e-12 0 6.26731e-06 -32.7104 -1.16458e-05 -8.88852e-07 -0 -3.21734e-06 -0 -0
96 1 0.5 25.2554 2.91624 0 -0.0055846 -0.00223171 0 -2.04593e-11 -1.75428e-12 0 9.46883e-06 -32.7104 -1.63299e-05 -2.60779e-06 -0 -6.52571e-06 -0 -0
98 1 0.5 26.3779 2.91624 0 -0.00134255 0.00175851 0 -4.11211e-11 -1.75428e-12 0 1.28145e-06 -32.7104 -9.4377e-07 -1.61915e-06 -0 1.23616e-06 -0 -0
100 2 0.5 27.5003 2.91624 0 0.00113306 -0.00548358 0 1.02296e-11 -1.92971e-12 0 8.20832e-06 -32.7104 -6.72232e-07 -1.57444e-05 -0 3.25324e-06 -0 -0
101 1 0.5 -7.05142e-14 3.88832 0 0.0049369 -0.000256582 0 -4.28429e-11 -6.13998e-12 0 6.39808e-06 -32.7104 -1.27617e-05 -3.44761e-08 -0 6.63254e-07 -0 -0
103 1 0.5 1.12246 3.88832 0 0.00035975 -0.00168896 0 2.02567e-13 -7.71884e-12 0 7.80688e-07 -32.7104 -6.77675e-08 -1.49362e-06 -0 3.1814e-07 -0 -0
105 2 0.5 2.24492 3.88832 0 0.00143429 -0.000355951 0 1.62054e-12 -7.71884e-12 0 5.71739e-07 -32.7104 -1.07714e-06 -6.63464e-08 -0 2.67316e-07 -0 -0
107 1 0.5 3.36739 3.88832 0 0.00391735 -0.00396826 0 0 -7.71884e-12 0 8.14005e-06 -32.7104 -8.03495e-06 -8.24516e-06 -0 8.13937e-06 -0 -0
109 2 0.5 4.48985 3.88832 0 -0.00217934 0.00188132 0 0 -7.71884e-12 0 2.17003e-06 -32.7104 -2.48684e-06 -1.85322e-06 -0 2.14678e-06 -0 -0
111 1 0.5 5.61231 3.88832 0 0.00491478 0.00757613 0 0 -7.71884e-12 0 2.13505e-05 -32.7104 -1.26476e-05 -3.00534e-05 -0 -1.94962e-05 -0 -0
113 2 0.5 6.73477 3.88832 0 -0.0051553 -0.00133785 0 2.32952e-12 -7.54341e-12 0 7.42646e-06 -32.7104 -1.39158e-05 -9.37165e-07 -0 -3.61128e-06 -0 -0
115 2 0.5 7.85723 3.88832 0 0.00388662 -0.00402535 0 -7.69754e-12 -7.71884e-12 0 8.19674e-06 -32.7104 -7.90939e-06 -8.4841e-06 -0 8.1917e-06 -0 -0
117 2 0.5 8.9797 3.88832 0 -0.000145136 0.0027455 0 2.00541e-11 -8.06969e-12 0 1.9789e-06 -32.7104 -1.10367e-08 -3.94678e-06 -0 2.08638e-07 -0 -0
119 2 0.5 10.1022 3.88832 0 -0.00468455 -0.00221852 0 9.72321e-12 -8.06969e-12 0 7.03371e-06 -32.7104 -1.14904e-05 -2.57707e-06 -0 -5.44164e-06 -0 -0
121 1 0.5 11.2246 3.88832 0 -0.00262057 -0.00209875 0 9.72321e-12 -8.06969e-12 0 2.95103e-06 -32.7104 -3.59574e-06 -2.30633e-06 -0 -2.87975e-06 -0 -0
123 2 0.5 12.3471 3.88832 0 -0.00687137 -0.00142124 0 4.76032e-12 -7.89426e-12 0 1.28899e-05 -32.7104 -2.47221e-05 -1.05764e-06 -0 -5.11341e-06 -0 -0
125 1 0.5 13.4695 3.88832 0 -0.00708061 0.00556977 0 1.48887e-11 -7.89426e-12 0 2.12469e-05 -32.7104 -2.62506e-05 -1.62433e-05 -0 2.06494e-05 -0 -0
127 2 0.5 14.592 3.88832 0 0.00196481 0.000738207 0 -2.5017e-11 -7.89426e-12 0 1.15333e-06 -32.7104 -2.02134e-06 -2.85345e-07 -0 -7.59445e-07 -0 -0
129 2 0.5 15.7145 3.88832 0 -0.00325745 0.00117946 0 2.52196e-11 -7.89426e-12 0 3.14215e-06 -32.7104 -5.55591e-06 -7.28388e-07 -0 2.01168e-06 -0 -0
131 1 0.5 16.8369 3.88832 0 0.00495081 0.00561261 0 -4.08172e-11 -7.89426e-12 0 1.46639e-05 -32.7104 -1.28337e-05 -1.64941e-05 -0 -1.45492e-05 -0 -0
133 1 0.5 17.9594 3.88832 0 0.00138314 0.00578832 0 5.11481e-11 -7.89426e-12 0 9.27234e-06 -32.7104 -1.00169e-06 -1.7543e-05 -0 -4.19198e-06 -0 -0
135 1 0.5 19.0819 3.88832 0 0.00268972 0.00367428 0 -4.0716e-11 -7.71884e-12 0 5.4284e-06 -32.7104 -3.78803e-06 -7.06878e-06 -0 -5.17462e-06 -0 -0
137 1 0.5 20.2043 3.88832 0 -0.00467995 -0.00092191 0 6.13778e-11 -8.06969e-12 0 5.95642e-06 -32.7104 -1.14678e-05 -4.45021e-07 -0 -2.25906e-06 -0 -0
139 2 0.5 21.3268 3.88832 0 -0.00282808 0.00349733 0 -5.09456e-11 -7.89426e-12 0 5.29603e-06 -32.7104 -4.18775e-06 -6.40432e-06 -0 5.17877e-06 -0 -0
141 1 0.5 22.4492 3.88832 0 -0.00301753 -0.00632991 0 5.11481e-11 -7.89426e-12 0 1.28735e-05 -32.7104 -4.76761e-06 -2.09794e-05 -0 -1.00011e-05 -0 -0
143 2 0.5 23.5717 3.88832 0 -0.00584663 -0.00170442 0 -4.0716e-11 -7.71884e-12 0 9.70965e-06 -32.7104 -1.78982e-05 -1.52109e-06 -0 -5.21774e-06 -0 -0
145 2 0.5 24.6942 3.88832 0 -0.006496 0.00446097 0 4.13237e-11 -8.06969e-12 0 1.62573e-05 -32.7104 -2.20948e-05 -1.04197e-05 -0 1.51731e-05 -0 -0
147 2 0.5 25.8166 3.88832 0 0.00308069 -0.00174709 0 2.06618e-11 -8.06969e-12 0 3.28374e-06 -32.7104 -4.96928e-06 -1.59821e-06 -0 2.81814e-06 -0 -0
149 1 0.5 26.9391 3.88832 0 0.00595396 0.00702221 0 3.02838e-11 -7.89426e-12 0 2.21904e-05 -32.7104 -1.85614e-05 -2.58194e-05 -0 -2.18917e-05 -0 -0
102 2 0.5 0.561231 4.8604 0 -0.00728054 0.00184727 0 -1.41797e-12 1.50868e-11 0 1.47704e-05 -32.7104 -2.7754e-05 -1.78674e-06 -0 7.04195e-06 -0 -0
104 2 0.5 1.68369 4.8604 0 -0.00082486 -6.84312e-05 0 -3.0385e-13 1.52622e-11 0 1.79353e-07 -32.7104 -3.56256e-07 -2.45423e-09 -0 -2.95552e-08 -0 -0
106 2 0.5 2.80616 4.8604 0 0.00353381 0.00482805 0 1.41797e-12 1.54377e-11 0 9.37186e-06 -32.7104 -6.53862e-06 -1.22051e-05 -0 -8.93334e-06 -0 -0
108 1 0.5 3.92862 4.8604 0 -0.00212014 -0.0054733 0 0 1.54377e-11 0 9.01952e-06 -32.7104 -2.35356e-06 -1.56855e-05 -0 -6.07591e-06 -0 -0
110 1 0.5 5.05108 4.8604 0 -0.0025822 0.00486193 0 0 1.54377e-11 0 7.93411e-06 -32.7104 -3.49122e-06 -1.2377e-05 -0 6.5735e-06 -0 -0
112 2 0.5 6.17354 4.8604 0 0.00212783 0.00690768 0 4.86161e-12 1.54377e-11 0 1.36774e-05 -32.7104 -2.37068e-06 -2.4984e-05 -0 -7.69605e-06 -0 -0
114 1 0.5 7.296 4.8604 0 -0.000401072 -0.000603346 0 -1.52938e-11 1.56131e-11 0 1.37415e-07 -32.7104 -8.42264e-08 -1.90606e-07 -0 -1.26703e-07 -0 -0
116 1 0.5 8.41847 4.8604 0 0.000545304 0.00339072 0 7.08984e-13 1.56131e-11 0 3.08775e-06 -32.7104 -1.557e-07 -6.01981e-06 -0 -9.68119e-07 -0 -0
118 1 0.5 9.54093 4.8604 0 -0.00693496 -0.00704709 0 -9.92578e-12 1.61394e-11 0 2.55922e-05 -32.7104 -2.51818e-05 -2.60027e-05 -0 -2.55889e-05 -0 -0
120 1 0.5 10.6634 4.8604 0 -0.00396509 7.92445e-05 0 -9.92578e-12 1.61394e-11 0 4.11764e-06 -32.7104 -8.23199e-06 -3.28974e-09 -0 1.64521e-07 -0 -0
122 2 0.5 11.7859 4.8604 0 0.00412078 -0.00218193 0 -2.02567e-11 1.61394e-11 0 5.69195e-06 -32.7104 -8.89114e-06 -2.49277e-06 -0 4.70782e-06 -0 -0
124 2 0.5 12.9083 4.8604 0 -0.00119351 0.00062668 0 2.02567e-11 1.54377e-11 0 4.75743e-07 -32.7104 -7.45855e-07 -2.05634e-07 -0 3.91627e-07 -0 -0
126 2 0.5 14.0308 4.8604 0 0.00265809 0.00358001 0 -2.54221e-11 1.5964e-11 0 5.20507e-06 -32.7104 -3.69945e-06 -6.71069e-06 -0 -4.98256e-06 -0 -0
128 2 0.5 15.1532 4.8604 0 0.00333313 0.0036373 0 2.5017e-11 1.56131e-11 0 6.37212e-06 -32.7104 -5.81705e-06 -6.92719e-06 -0 -6.34789e-06 -0 -0
130 1 0.5 16.2757 4.8604 0 0.00328552 -0.00671229 0 -3.57531e-11 1.5964e-11 0 1.46214e-05 -32.7104 -5.65207e-06 -2.35907e-05 -0 1.15471e-05 -0 -0
132 1 0.5 17.3982 4.8604 0 -0.000936589 0.0054082 0 5.0743e-11 1.5964e-11 0 7.88693e-06 -32.7104 -4.59304e-07 -1.53146e-05 -0 2.65216e-06 -0 -0
134 2 0.5 18.5206 4.8604 0 0.000271225 -0.00111026 0 -3.04863e-11 1.56131e-11 0 3.41971e-07 -32.7104 -3.85038e-08 -6.45417e-07 -0 1.57671e-07 -0 -0
136 2 0.5 19.6431 4.8604 0 0.00633591 0.00191032 0 -1.00271e-11 1.5964e-11 0 1.1465e-05 -32.7104 -2.10192e-05 -1.9108e-06 -0 -6.33745e-06 -0 -0
138 2 0.5 20.7655 4.8604 0 0.00655442 -0.000971449 0 -3.1094e-11 1.56131e-11 0 1.14941e-05 -32.7104 -2.24941e-05 -4.9412e-07 -0 3.3339e-06 -0 -0
140 2 0.5 21.888 4.8604 0 0.00628971 -2.87874e-05 0 5.0743e-11 1.5964e-11 0 1.03571e-05 -32.7104 -2.07138e-05 -4.44401e-10 -0 9.48048e-08 -0 -0
142 1 0.5 23.0105 4.8604 0 -0.00149045 0.00690573 0 -3.04863e-11 1.56131e-11 0 1.30666e-05 -32.7104 -1.16313e-06 -2.497e-05 -0 5.38921e-06 -0 -0
144 2 0.5 24.1329 4.8604 0 -0.00445643 0.00437588 0 -1.00271e-11 1.5964e-11 0 1.02123e-05 -32.7104 -1.03986e-05 -1.0026e-05 -0 1.02106e-05 -0 -0
146 1 0.5 25.2554 4.8604 0 -0.00585667 -0.00335205 0 -2.04593e-11 1.61394e-11 0 1.19215e-05 -32.7104 -1.79597e-05 -5.88327e-06 -0 -1.02792e-05 -0 -0
148 2 0.5 26.3779 4.8604 0 0.00528281 -0.00356946 0 -4.11211e-11 1.61394e-11 0 1.06419e-05 -32.7104 -1.46127e-05 -6.67119e-06 -0 9.87339e-06 -0 -0
150 1 0.5 27.5003 4.8604 0 0.00401692 -0.00113123 0 1.04322e-11 1.56131e-11 0 4.55932e-06 -32.7104 -8.44863e-06 -6.70029e-07 -0 2.37926e-06 -0 -0
151 1 0.5 -7.05142e-14 5.83248 0 -0.00424133 0.00486571 0 -4.30455e-11 -5.78913e-12 0 1.09076e-05 -32.7104 -9.41892e-06 -1.23963e-05 -0 1.08055e-05 -0 -0
153 1 0.5 1.12246 5.83248 0 -0.00202213 0.0013345 0 3.0385e-13 -7.54341e-12 0 1.53674e-06 -32.7104 -2.14101e-06 -9.32466e-07 -0 1.41295e-06 -0 -0
155 2 0.5 2.24492 5.83248 0 0.000138436 -0.000273936 0 1.72182e-12 -7.54341e-12 0 2.4663e-08 -32.7104 -1.00346e-08 -3.92899e-08 -0 1.98562e-08 -0 -0
157 2 0.5 3.36739 5.83248 0 -0.000923998 0.0043846 0 0 -7.71884e-12 0 5.25654e-06 -32.7104 -4.47034e-07 -1.0066e-05 -0 2.12129e-06 -0 -0
159 1 0.5 4.48985 5.83248 0 0.000118901 0.00553241 0 0 -7.71884e-12 0 8.01674e-06 -32.7104 -7.40152e-09 -1.60261e-05 -0 -3.44427e-07 -0 -0
161 2 0.5 5.61231 5.83248 0 0.00296371 0.00664438 0 0 -7.71884e-12 0 1.38574e-05 -32.7104 -4.59906e-06 -2.31157e-05 -0 -1.03107e-05 -0 -0
163 2 0.5 6.73477 5.83248 0 -0.00238868 0.00701553 0 2.32952e-12 -7.89426e-12 0 1.43789e-05 -32.7104 -2.98756e-06 -2.57703e-05 -0 8.77441e-06 -0 -0
165 2 0.5 7.85723 5.83248 0 -0.00671739 0.00450713 0 -7.79883e-12 -7.89426e-12 0 1.71315e-05 -32.7104 -2.36266e-05 -1.06365e-05 -0 1.58526e-05 -0 -0
167 1 0.5 8.9797 5.83248 0 -0.00738779 0.00655046 0 2.02567e-11 -8.06969e-12 0 2.55223e-05 -32.7104 -2.85778e-05 -2.24669e-05 -0 2.53388e-05 -0 -0
169 2 0.5 10.1022 5.83248 0 -0.00694115 -0.00469351 0 9.92578e-12 -8.06969e-12 0 1.83806e-05 -32.7104 -2.52267e-05 -1.15344e-05 -0 -1.7058e-05 -0 -0
171 1 0.5 11.2246 5.83248 0 0.00618237 0.00333133 0 9.92578e-12 -8.06969e-12 0 1.29118e-05 -32.7104 -2.00128e-05 -5.81078e-06 -0 -1.07838e-05 -0 -0
173 1 0.5 12.3471 5.83248 0 0.00727976 -0.00618082 0 4.65904e-12 -7.71884e-12 0 2.38754e-05 -32.7104 -2.77481e-05 -2.00028e-05 -0 2.35593e-05 -0 -0
175 2 0.5 13.4695 5.83248 0 -7.01934e-05 0.00170293 0 1.51925e-11 -8.06969e-12 0 7.60497e-07 -32.7104 -2.57198e-09 -1.51841e-06 -0 6.25878e-08 -0 -0
177 1 0.5 14.592 5.83248 0 0.00381955 -0.00730124 0 -2.49157e-11 -7.71884e-12 0 1.77754e-05 -32.7104 -7.63878e-06 -2.79121e-05 -0 1.46019e-05 -0 -0
179 2 0.5 15.7145 5.83248 0 -0.00742278 -0.00429377 0 2.55234e-11 -8.06969e-12 0 1.92512e-05 -32.7104 -2.8849e-05 -9.65332e-06 -0 -1.6688e-05 -0 -0
181 2 0.5 16.8369 5.83248 0 -0.00572067 0.00417536 0 -4.05134e-11 -8.06969e-12 0 1.31318e-05 -32.7104 -1.71353e-05 -9.12823e-06 -0 1.25066e-05 -0 -0
183 1 0.5 17.9594 5.83248 0 -0.00505139 -0.00155459 0 5.12494e-11 -7.71884e-12 0 7.31293e-06 -32.7104 -1.33605e-05 -1.2654e-06 -0 -4.11175e-06 -0 -0
185 2 0.5 19.0819 5.83248 0 -0.00688437 -0.00732897 0 -4.0716e-11 -7.71884e-12 0 2.64701e-05 -32.7104 -2.48158e-05 -2.81245e-05 -0 -2.64184e-05 -0 -0
187 2 0.5 20.2043 5.83248 0 -0.00613962 -0.00510772 0 6.11752e-11 -8.06969e-12 0 1.66986e-05 -32.7104 -1.9737e-05 -1.36601e-05 -0 -1.64198e-05 -0 -0
189 1 0.5 21.3268 5.83248 0 0.00218569 0.00737592 0 -5.06417e-11 -8.06969e-12 0 1.54937e-05 -32.7104 -2.50137e-06 -2.84859e-05 -0 -8.4412e-06 -0 -0
191 1 0.5 22.4492 5.83248 0 0.00725556 -0.00275883 0 5.12494e-11 -7.71884e-12 0 1.57746e-05 -32.7104 -2.75639e-05 -3.98519e-06 -0 1.04808e-05 -0 -0
193 2 0.5 23.5717 5.83248 0 -0.00653839 0.00588034 0 -4.0716e-11 -7.71884e-12 0 2.02447e-05 -32.7104 -2.23841e-05 -1.81052e-05 -0 2.01313e-05 -0 -0
195 2 0.5 24.6942 5.83248 0 -0.00526387 -0.00339849 0 4.11211e-11 -8.06969e-12 0 1.02777e-05 -32.7104 -1.4508e-05 -6.04741e-06 -0 -9.36675e-06 -0 -0
197 2 0.5 25.8166 5.83248 0 0.00526262 0.00636216 0 2.04593e-11 -8.06969e-12 0 1.78474e-05 -32.7104 -1.45011e-05 -2.11937e-05 -0 -1.75309e-05 -0 -0
199 2 0.5 26.9391 5.83248 0 0.00648375 -0.00416204 0 2.99799e-11 -8.06969e-12 0 1.55408e-05 -32.7104 -2.20116e-05 -9.07008e-06 -0 1.41296e-05 -0 -0
152 2 0.5 0.561231 6.80456 0 -0.00230477 0.00491794 0 -1.41797e-12 0 0 7.72257e-06 -32.7104 -2.78134e-06 -1.26638e-05 -0 5.93484e-06 -0 -0
154 2 0.5 1.68369 6.80456 0 -0.00311402 -0.00295172 0 -2.02567e-13 0 0 4.81966e-06 -32.7104 -5.0774e-06 -4.56194e-06 -0 -4.81277e-06 -0 -0
156 1 0.5 2.80616 6.80456 0 -0.00337803 -0.00528575 0 1.41797e-12 0 0 1.03019e-05 -32.7104 -5.97482e-06 -1.46289e-05 -0 -9.34906e-06 -0 -0
158 1 0.5 3.92862 6.80456 0 -0.00746472 0.00468419 0 0 0 0 2.03323e-05 -32.7104 -2.9176e-05 -1.14886e-05 -0 1.83082e-05 -0 -0
160 2 0.5 5.05108 6.80456 0 0.00713254 -0.00476471 0 0 0 0 1.92621e-05 -32.7104 -2.66371e-05 -1.1887e-05 -0 1.77942e-05 -0 -0
162 1 0.5 6.17354 6.80456 0 -0.00319598 0.00166425 0 4.86161e-12 0 0 3.39921e-06 -32.7104 -5.34818e-06 -1.45024e-06 -0 2.78498e-06 -0 -0
164 2 0.5 7.296 6.80456 0 -0.00345006 -0.000898214 0 -1.51925e-11 0 0 3.32739e-06 -32.7104 -6.23235e-06 -4.22436e-07 -0 -1.62258e-06 -0 -0
166 1 0.5 8.41847 6.80456 0 -0.0015888 -0.00575837 0 8.10268e-13 8.07794e-28 0 9.34181e-06 -32.7104 -1.32171e-06 -1.73619e-05 -0 -4.79034e-06 -0 -0
168 2 0.5 9.54093 6.80456 0 -0.00233503 -0.00254977 0 -9.72321e-12 0 0 3.12947e-06 -32.7104 -2.85486e-06 -3.40408e-06 -0 -3.1174e-06 -0 -0
170 1 0.5 10.6634 6.80456 0 0.00318195 -0.000839182 0 -9.72321e-12 0 0 2.83503e-06 -32.7104 -5.30134e-06 -3.68734e-07 -0 1.39813e-06 -0 -0
172 2 0.5 11.7859 6.80456 0 0.00059773 0.0036255 0 -2.00541e-11 0 0 3.5347e-06 -32.7104 -1.87078e-07 -6.88233e-06 -0 -1.13468e-06 -0 -0
174 1 0.5 12.9083 6.80456 0 0.00546806 -0.00363098 0 2.02567e-11 0 0 1.12793e-05 -32.7104 -1.56554e-05 -6.90315e-06 -0 1.03958e-05 -0 -0
176 2 0.5 14.0308 6.80456 0 0.00441524 -0.00438595 0 -2.53209e-11 0 0 1.01397e-05 -32.7104 -1.02072e-05 -1.00722e-05 -0 1.01395e-05 -0 -0
178 2 0.5 15.1532 6.80456 0 -0.00710292 -0.00490341 0 2.49157e-11 4.03897e-28 0 1.95027e-05 -32.7104 -2.64163e-05 -1.25891e-05 -0 -1.82362e-05 -0 -0
180 2 0.5 16.2757 6.80456 0 0.003764 0.000674262 0 -3.56518e-11 0 0 3.82812e-06 -32.7104 -7.4182e-06 -2.38041e-07 -0 -1.32885e-06 -0 -0
182 2 0.5 17.3982 6.80456 0 0.00206758 -0.00327962 0 5.08443e-11 -4.03897e-28 0 3.93506e-06 -32.7104 -2.23834e-06 -5.63179e-06 -0 3.55046e-06 -0 -0
184 2 0.5 18.5206 6.80456 0 0.00193443 0.00661671 0 -3.05876e-11 -4.03897e-28 0 1.24414e-05 -32.7104 -1.9593e-06 -2.29236e-05 -0 -6.70183e-06 -0 -0
186 1 0.5 19.6431 6.80456 0 -0.00537002 0.00466979 0 -1.01283e-11 0 0 1.32586e-05 -32.7104 -1.50991e-05 -1.14181e-05 -0 1.31302e-05 -0 -0
188 2 0.5 20.7655 6.80456 0 -0.0037898 -0.000315835 0 -3.11953e-11 -4.03897e-28 0 3.78624e-06 -32.7104 -7.52025e-06 -5.22232e-08 -0 -6.26724e-07 -0 -0
190 1 0.5 21.888 6.80456 0 -0.00505926 0.00290902 0 5.08443e-11 -4.03897e-28 0 8.9165e-06 -32.7104 -1.34021e-05 -4.4309e-06 -0 7.70605e-06 -0 -0
192 2 0.5 23.0105 6.80456 0 -0.00280772 -0.00368978 0 -3.05876e-11 -4.03897e-28 0 5.62811e-06 -32.7104 -4.12766e-06 -7.12853e-06 -0 -5.42442e-06 -0 -0
194 2 0.5 24.1329 6.80456 0 0.00284854 -6.18846e-05 0 -1.01283e-11 0 0 2.12529e-06 -32.7104 -4.24859e-06 -2.0158e-09 -0 9.23005e-08 -0 -0
196 2 0.5 25.2554 6.80456 0 -0.00565474 0.00352108 0 -2.06618e-11 0 0 1.16171e-05 -32.7104 -1.67427e-05 -6.49159e-06 -0 1.04253e-05 -0 -0
198 2 0.5 26.3779 6.80456 0 0.00619559 -0.00233615 0 -4.13237e-11 0 0 1.1478e-05 -32.7104 -2.00985e-05 -2.8576e-06 -0 7.57849e-06 -0 -0
200 2 0.5 27.5003 6.80456 0 0.00370443 0.00186948 0 1.05335e-11 0 0 4.5076e-06 -32.7104 -7.18526e-06 -1.82994e-06 -0 -3.62611e-06 -0 -0
201 1 0.5 -7.05142e-14 7.77665 0 -0.00546415 0.00210543 0 -4.29442e-11 9.12226e-12 0 8.97705e-06 -32.7104 -1.5633e-05 -2.32103e-06 -0 6.02369e-06 -0 -0
203 2 0.5 1.12246 7.77665 0 -0.00451458 -0.000954584 0 3.0385e-13 7.54341e-12 0 5.57441e-06 -32.7104 -1.06717e-05 -4.77117e-07 -0 -2.25647e-06 -0 -0
205 2 0.5 2.24492 7.77665 0 -0.00630689 -0.00666461 0 1.72182e-12 7.54341e-12 0 2.20419e-05 -32.7104 -2.08271e-05 -2.32567e-05 -0 -2.20084e-05 -0 -0
207 2 0.5 3.36739 7.77665 0 0.00132945 -0.0005532 0 0 7.71884e-12 0 5.42833e-07 -32.7104 -9.25429e-07 -1.60236e-07 -0 3.85082e-07 -0 -0