ITEM: TIMESTEP
0
ITEM: NUMBER OF ENTRIES
44
ITEM: BOX BOUNDS pp pp pp
0.0000000000000000e+00 2.2000000000000015e+00
0.0000000000000000e+00 8.6602540378443915e-01
-2.5000000000000017e-01 2.5000000000000017e-01
ITEM: ENTRIES index c_1[1] c_1[2] c_2[1] c_2[2] c_2[3] c_2[4] c_2[5] 
1 1 2 1 0 -0 0 0 
2 1 3 2 0 -0 0 0 
3 1 1 2.2 0 -0 0 0 
4 1 1 2.36432 0 0 -0 0 
5 1 3 0.888819 618.056 2501.76 -10832.9 0 
6 1 2 1.47986 0 0 -0 0 
7 1 1 0.866025 897.46 0 -13397.5 0 
8 1 2 1.32288 0 -0 -0 0 
9 1 3 2.17945 0 -0 -0 0 
10 1 1 2.36432 0 -0 -0 0 
11 1 3 1.74356 0 0 -0 0 
12 1 2 2.10713 0 0 -0 0 
13 1 1 1.73205 0 0 -0 0 
14 1 2 2 0 -0 -0 0 
15 2 3 1 0 -0 0 0 
16 2 1 1.2 0 -0 0 0 
17 2 2 2.2 0 -0 0 0 
18 2 3 1.47986 0 0 -0 0 
19 2 2 2.36432 0 0 -0 0 
20 2 2 0.866025 897.46 0 -13397.5 0 
21 2 1 1.32288 0 0 -0 0 
22 2 3 1.32288 0 -0 -0 0 
23 2 1 1.47986 0 -0 -0 0 
24 2 2 2.36432 0 -0 -0 0 
25 2 3 2.10713 0 0 -0 0 
26 2 2 1.73205 0 0 -0 0 
27 2 1 2 0 0 -0 0 
28 2 3 2 0 -0 -0 0 
29 2 1 2.10713 0 -0 -0 0 
30 3 1 0.2 32000 -80000 0 0 
31 3 2 1.2 0 -0 0 0 
32 3 3 2.2 0 -0 0 0 
33 3 1 2.4 0 -0 0 0 
34 3 3 2.36432 0 0 -0 0 
35 3 3 0.866025 897.46 0 -13397.5 0 
36 3 2 1.32288 0 0 -0 0 
37 3 1 2.17945 0 0 -0 0 
38 3 1 0.888819 618.056 -2501.76 -10832.9 0 
39 3 2 1.47986 0 -0 -0 0 
40 3 3 2.36432 0 -0 -0 0 
41 3 3 1.73205 0 0 -0 0 
42 3 2 2 0 0 -0 0 
43 3 1 1.74356 0 -0 -0 0 
44 3 2 2.10713 0 -0 -0 0 
ITEM: TIMESTEP
42
ITEM: NUMBER OF ENTRIES
24
ITEM: BOX BOUNDS pp pp pp
-3.9996457252478335e-01 2.5999645725247849e+00
-1.5744521837283884e-01 1.0234706221572782e+00
-2.5000000000000017e-01 2.5000000000000017e-01
ITEM: ENTRIES index c_1[1] c_1[2] c_2[1] c_2[2] c_2[3] c_2[4] c_2[5] 
1 1 2 0.999976 2.78912e-05 -2.36183 0 0 
2 1 3 1.99995 0 -0 0 0 
3 1 2 2.32258 0 0 -0 0 
4 1 3 1.54742 0 0 -0 0 
5 1 1 1.18092 0 0 -0 0 
6 1 2 1.54742 0 -0 -0 0 
7 1 3 2.32258 0 -0 -0 0 
8 1 1 2.36183 0 0 -0 0 
9 2 3 0.999976 2.78912e-05 -2.36183 0 0 
10 2 1 1.99995 0 -0 0 0 
11 2 3 2.32258 0 0 -0 0 
12 2 2 1.18092 0 0 -0 0 
13 2 1 1.54742 0 0 -0 0 
14 2 3 1.54742 0 -0 -0 0 
15 2 1 2.32258 0 -0 -0 0 
16 2 2 2.36183 0 0 -0 0 
17 3 1 0.999976 2.78912e-05 -2.36183 0 0 
18 3 2 1.99995 0 -0 0 0 
19 3 2 1.54742 0 0 -0 0 
20 3 1 2.32258 0 0 -0 0 
21 3 3 1.18092 0 0 -0 0 
22 3 1 1.54742 0 -0 -0 0 
23 3 2 2.32258 0 -0 -0 0 
24 3 3 2.36183 0 0 -0 0 
