ITEM: TIMESTEP
0
ITEM: NUMBER OF ATOMS
3
ITEM: BOX BOUNDS pp pp pp
0.0000000000000000e+00 2.2000000000000015e+00
0.0000000000000000e+00 8.6602540378443915e-01
-2.5000000000000017e-01 2.5000000000000017e-01
ITEM: ATOMS id type radius x y z vx vy vz fx fy fz c_c1 c_c2 c_3[1] c_3[2] c_3[3] c_3[4] c_3[5] c_3[6]
1 2 0.5 0 0 0 0 0 0 85003.5 -1.81899e-12 0 0 17515.5 -8500.35 -20984.1 -0 -0 -0 -0
2 2 0.5 1 0 0 0 0 0 0 0 0 0 897.46 -0 -11602.5 -0 -0 -0 -0
3 2 0.5 2 0 0 0 0 0 -85003.5 -1.81899e-12 0 0 17515.5 -8500.35 -20984.1 -0 -0 -0 -0
ITEM: TIMESTEP
42
ITEM: NUMBER OF ATOMS
3
ITEM: BOX BOUNDS pp pp pp
-3.9996457252478335e-01 2.5999645725247849e+00
-1.5744521837283884e-01 1.0234706221572782e+00
-2.5000000000000017e-01 2.5000000000000017e-01
ITEM: ATOMS id type radius x y z vx vy vz fx fy fz c_c1 c_c2 c_3[1] c_3[2] c_3[3] c_3[4] c_3[5] c_3[6]
1 2 0.5 -0.0363368 -0.157445 0 0 0 0 2.22045e-11 0 0 0 2.78912e-05 -2.36178 -0 -0 -0 -0 -0
2 2 0.5 0.96364 -0.157445 0 0 0 0 1.11022e-11 0 0 0 2.78912e-05 -2.36178 -0 -0 -0 -0 -0
3 2 0.5 1.96362 -0.157445 0 0 0 0 -3.33067e-11 0 0 0 2.78912e-05 -2.36178 -0 -0 -0 -0 -0
