ITEM: TIMESTEP
0
ITEM: NUMBER OF ENTRIES
2071
ITEM: BOX BOUNDS pp fm pp
0.0000000000000000e+00 5.0000000000000000e+01
0.0000000000000000e+00 8.5745262706010806e+01
-5.0000000000000000e-01 5.0000000000000000e-01
ITEM: ENTRIES index c_1[1] c_1[2] c_2[1] c_2[2] c_2[3] c_2[4] c_2[5] 
1 26 1250 1 4.15668e-13 12 20.7846 0 
2 26 1300 1 4.10338e-13 12 -20.7846 0 
3 76 1300 1 4.23661e-13 12 20.7846 0 
4 76 1350 1 4.23661e-13 12 -20.7846 0 
5 126 1350 1 3.97016e-13 12 20.7846 0 
6 126 1400 1 4.13003e-13 12 -20.7846 0 
7 127 176 1 2.66454e-15 12 -20.7846 0 
8 127 178 1 2.66454e-15 -12 -20.7846 0 
9 129 178 1 2.66454e-15 12 -20.7846 0 
10 131 182 1 5.32907e-15 -12 -20.7846 0 
11 135 184 1 5.32907e-15 12 -20.7846 0 
12 137 186 1 5.32907e-15 12 -20.7846 0 
13 137 188 1 5.32907e-15 -12 -20.7846 0 
14 139 190 1 5.32907e-15 -12 -20.7846 0 
15 141 192 1 5.32907e-15 -12 -20.7846 0 
16 143 192 1 5.32907e-15 12 -20.7846 0 
17 143 194 1 5.32907e-15 -12 -20.7846 0 
18 145 196 1 5.32907e-15 -12 -20.7846 0 
19 147 196 1 5.32907e-15 12 -20.7846 0 
20 147 198 1 5.32907e-15 -12 -20.7846 0 
21 149 198 1 5.32907e-15 12 -20.7846 0 
22 149 200 1 5.32907e-15 -12 -20.7846 0 
23 151 202 1 5.32907e-15 -12 -20.7846 0 
24 153 202 1 5.32907e-15 12 -20.7846 0 
25 153 204 1 5.32907e-15 -12 -20.7846 0 
26 155 204 1 5.32907e-15 12 -20.7846 0 
27 157 206 1 5.32907e-15 12 -20.7846 0 
28 157 208 1 5.32907e-15 -12 -20.7846 0 
29 159 208 1 5.32907e-15 12 -20.7846 0 
30 159 210 1 5.32907e-15 -12 -20.7846 0 
31 161 210 1 5.32907e-15 12 -20.7846 0 
32 161 212 1 5.32907e-15 -12 -20.7846 0 
33 163 212 1 5.32907e-15 12 -20.7846 0 
34 165 214 1 5.32907e-15 12 -20.7846 0 
35 165 216 1 5.32907e-15 -12 -20.7846 0 
36 167 216 1 5.32907e-15 12 -20.7846 0 
37 167 218 1 5.32907e-15 -12 -20.7846 0 
38 169 218 1 5.32907e-15 12 -20.7846 0 
39 169 220 1 5.32907e-15 -12 -20.7846 0 
40 171 220 1 5.32907e-15 12 -20.7846 0 
41 171 222 1 5.32907e-15 -12 -20.7846 0 
42 173 222 1 5.32907e-15 12 -20.7846 0 
43 173 224 1 5.32907e-15 -12 -20.7846 0 
44 175 1401 1 5.32907e-15 -12 -20.7846 0 
45 176 1400 1 4.31655e-13 12 20.7846 0 
46 176 1450 1 4.13003e-13 12 -20.7846 0 
47 177 226 1 2.66454e-15 12 -20.7846 0 
48 177 228 1 2.66454e-15 -12 -20.7846 0 
49 179 228 1 2.66454e-15 12 -20.7846 0 
50 181 232 1 5.32907e-15 -12 -20.7846 0 
51 185 234 1 5.32907e-15 12 -20.7846 0 
52 187 236 1 5.32907e-15 12 -20.7846 0 
53 187 238 1 5.32907e-15 -12 -20.7846 0 
54 189 240 1 5.32907e-15 -12 -20.7846 0 
55 191 242 1 5.32907e-15 -12 -20.7846 0 
56 193 242 1 5.32907e-15 12 -20.7846 0 
57 193 244 1 5.32907e-15 -12 -20.7846 0 
58 195 246 1 5.32907e-15 -12 -20.7846 0 
59 197 246 1 5.32907e-15 12 -20.7846 0 
60 197 248 1 5.32907e-15 -12 -20.7846 0 
61 199 248 1 5.32907e-15 12 -20.7846 0 
62 199 250 1 5.32907e-15 -12 -20.7846 0 
63 201 252 1 5.32907e-15 -12 -20.7846 0 
64 203 252 1 5.32907e-15 12 -20.7846 0 
65 203 254 1 5.32907e-15 -12 -20.7846 0 
66 205 254 1 5.32907e-15 12 -20.7846 0 
67 207 256 1 5.32907e-15 12 -20.7846 0 
68 207 258 1 5.32907e-15 -12 -20.7846 0 
69 209 258 1 5.32907e-15 12 -20.7846 0 
70 209 260 1 5.32907e-15 -12 -20.7846 0 
71 211 260 1 5.32907e-15 12 -20.7846 0 
72 211 262 1 5.32907e-15 -12 -20.7846 0 
73 213 262 1 5.32907e-15 12 -20.7846 0 
74 215 264 1 5.32907e-15 12 -20.7846 0 
75 215 266 1 5.32907e-15 -12 -20.7846 0 
76 217 266 1 5.32907e-15 12 -20.7846 0 
77 217 268 1 5.32907e-15 -12 -20.7846 0 
78 219 268 1 5.32907e-15 12 -20.7846 0 
79 219 270 1 5.32907e-15 -12 -20.7846 0 
80 221 270 1 5.32907e-15 12 -20.7846 0 
81 221 272 1 5.32907e-15 -12 -20.7846 0 
82 223 272 1 5.32907e-15 12 -20.7846 0 
83 223 274 1 5.32907e-15 -12 -20.7846 0 
84 225 1451 1 5.32907e-15 -12 -20.7846 0 
85 226 1450 1 4.31655e-13 12 20.7846 0 
86 226 1500 1 3.78364e-13 12 -20.7846 0 
87 276 1500 1 4.13003e-13 12 20.7846 0 
88 276 1550 1 4.50306e-13 12 -20.7846 0 
89 276 277 1 2.13163e-14 -12 -20.7846 0 
90 278 277 1 2.13163e-14 12 -20.7846 0 
91 278 279 1 2.13163e-14 -12 -20.7846 0 
92 280 279 1 1.86517e-14 12 -20.7846 0 
93 280 281 1 1.86517e-14 -12 -20.7846 0 
94 282 281 1 2.39808e-14 12 -20.7846 0 
95 282 283 1 1.86517e-14 -12 -20.7846 0 
96 284 283 1 1.86517e-14 12 -20.7846 0 
97 284 285 1 2.39808e-14 -12 -20.7846 0 
98 286 285 1 1.33227e-14 12 -20.7846 0 
99 286 287 1 2.39808e-14 -12 -20.7846 0 
100 288 287 1 2.39808e-14 12 -20.7846 0 
101 288 289 1 1.33227e-14 -12 -20.7846 0 
102 290 289 1 2.39808e-14 12 -20.7846 0 
103 290 291 1 1.33227e-14 -12 -20.7846 0 
104 292 291 1 2.39808e-14 12 -20.7846 0 
105 292 293 1 2.39808e-14 -12 -20.7846 0 
106 294 293 1 2.39808e-14 12 -20.7846 0 
107 294 295 1 2.66454e-15 -12 -20.7846 0 
108 296 295 1 2.39808e-14 12 -20.7846 0 
109 296 297 1 2.39808e-14 -12 -20.7846 0 
110 298 297 1 2.39808e-14 12 -20.7846 0 
111 298 299 1 2.39808e-14 -12 -20.7846 0 
112 300 299 1 2.39808e-14 12 -20.7846 0 
113 300 301 1 2.66454e-15 -12 -20.7846 0 
114 302 301 1 2.39808e-14 12 -20.7846 0 
115 302 303 1 2.39808e-14 -12 -20.7846 0 
116 304 303 1 2.39808e-14 12 -20.7846 0 
117 304 305 1 2.39808e-14 -12 -20.7846 0 
118 306 305 1 2.66454e-15 12 -20.7846 0 
119 306 307 1 2.39808e-14 -12 -20.7846 0 
120 308 307 1 2.39808e-14 12 -20.7846 0 
121 308 309 1 2.39808e-14 -12 -20.7846 0 
122 310 309 1 2.39808e-14 12 -20.7846 0 
123 310 311 1 2.39808e-14 -12 -20.7846 0 
124 312 311 1 2.39808e-14 12 -20.7846 0 
125 312 313 1 2.39808e-14 -12 -20.7846 0 
126 314 315 1 2.39808e-14 -12 -20.7846 0 
127 316 315 1 2.39808e-14 12 -20.7846 0 
128 316 317 1 2.39808e-14 -12 -20.7846 0 
129 318 317 1 2.39808e-14 12 -20.7846 0 
130 318 319 1 2.39808e-14 -12 -20.7846 0 
131 320 319 1 2.39808e-14 12 -20.7846 0 
132 320 321 1 2.39808e-14 -12 -20.7846 0 
133 322 321 1 2.39808e-14 12 -20.7846 0 
134 322 323 1 2.39808e-14 -12 -20.7846 0 
135 324 323 1 2.39808e-14 12 -20.7846 0 
136 325 1501 1 2.39808e-14 -12 20.7846 0 
137 326 1550 1 3.78364e-13 12 20.7846 0 
138 326 1600 1 4.50306e-13 12 -20.7846 0 
139 326 327 1 2.13163e-14 -12 -20.7846 0 
140 328 327 1 2.13163e-14 12 -20.7846 0 
141 328 329 1 2.13163e-14 -12 -20.7846 0 
142 330 329 1 1.86517e-14 12 -20.7846 0 
143 330 331 1 1.86517e-14 -12 -20.7846 0 
144 332 331 1 2.39808e-14 12 -20.7846 0 
145 332 333 1 1.86517e-14 -12 -20.7846 0 
146 334 333 1 1.86517e-14 12 -20.7846 0 
147 334 335 1 2.39808e-14 -12 -20.7846 0 
148 336 335 1 1.33227e-14 12 -20.7846 0 
149 336 337 1 2.39808e-14 -12 -20.7846 0 
150 338 337 1 2.39808e-14 12 -20.7846 0 
151 338 339 1 1.33227e-14 -12 -20.7846 0 
152 340 339 1 2.39808e-14 12 -20.7846 0 
153 340 341 1 1.33227e-14 -12 -20.7846 0 
154 342 341 1 2.39808e-14 12 -20.7846 0 
155 342 343 1 2.39808e-14 -12 -20.7846 0 
156 344 343 1 2.39808e-14 12 -20.7846 0 
157 344 345 1 2.66454e-15 -12 -20.7846 0 
158 346 345 1 2.39808e-14 12 -20.7846 0 
159 346 347 1 2.39808e-14 -12 -20.7846 0 
160 348 347 1 2.39808e-14 12 -20.7846 0 
161 348 349 1 2.39808e-14 -12 -20.7846 0 
162 350 349 1 2.39808e-14 12 -20.7846 0 
163 350 351 1 2.66454e-15 -12 -20.7846 0 
164 352 351 1 2.39808e-14 12 -20.7846 0 
165 352 353 1 2.39808e-14 -12 -20.7846 0 
166 354 353 1 2.39808e-14 12 -20.7846 0 
167 354 355 1 2.39808e-14 -12 -20.7846 0 
168 356 355 1 2.66454e-15 12 -20.7846 0 
169 356 357 1 2.39808e-14 -12 -20.7846 0 
170 358 357 1 2.39808e-14 12 -20.7846 0 
171 358 359 1 2.39808e-14 -12 -20.7846 0 
172 360 359 1 2.39808e-14 12 -20.7846 0 
173 360 361 1 2.39808e-14 -12 -20.7846 0 
174 362 361 1 2.39808e-14 12 -20.7846 0 
175 362 363 1 2.39808e-14 -12 -20.7846 0 
176 364 365 1 2.39808e-14 -12 -20.7846 0 
177 366 365 1 2.39808e-14 12 -20.7846 0 
178 366 367 1 2.39808e-14 -12 -20.7846 0 
179 368 367 1 2.39808e-14 12 -20.7846 0 
180 368 369 1 2.39808e-14 -12 -20.7846 0 
181 370 369 1 2.39808e-14 12 -20.7846 0 
182 370 371 1 2.39808e-14 -12 -20.7846 0 
183 372 371 1 2.39808e-14 12 -20.7846 0 
184 372 373 1 2.39808e-14 -12 -20.7846 0 
185 374 373 1 2.39808e-14 12 -20.7846 0 
186 375 1551 1 2.39808e-14 -12 20.7846 0 
187 376 1600 1 4.13003e-13 12 20.7846 0 
188 376 1650 1 3.78364e-13 12 -20.7846 0 
189 377 426 1 2.13163e-14 12 -20.7846 0 
190 377 428 1 2.13163e-14 -12 -20.7846 0 
191 379 428 1 2.13163e-14 12 -20.7846 0 
192 379 430 1 1.86517e-14 -12 -20.7846 0 
193 381 430 1 1.86517e-14 12 -20.7846 0 
194 381 432 1 2.39808e-14 -12 -20.7846 0 
195 383 432 1 1.86517e-14 12 -20.7846 0 
196 383 434 1 1.86517e-14 -12 -20.7846 0 
197 385 434 1 2.39808e-14 12 -20.7846 0 
198 385 436 1 1.33227e-14 -12 -20.7846 0 
199 387 436 1 2.39808e-14 12 -20.7846 0 
200 387 438 1 2.39808e-14 -12 -20.7846 0 
201 389 438 1 1.33227e-14 12 -20.7846 0 
202 389 440 1 2.39808e-14 -12 -20.7846 0 
203 391 440 1 1.33227e-14 12 -20.7846 0 
204 391 442 1 2.39808e-14 -12 -20.7846 0 
205 393 442 1 2.39808e-14 12 -20.7846 0 
206 393 444 1 2.39808e-14 -12 -20.7846 0 
207 395 444 1 2.66454e-15 12 -20.7846 0 
208 395 446 1 2.39808e-14 -12 -20.7846 0 
209 397 446 1 2.39808e-14 12 -20.7846 0 
210 397 448 1 2.39808e-14 -12 -20.7846 0 
211 399 448 1 2.39808e-14 12 -20.7846 0 
212 399 450 1 2.39808e-14 -12 -20.7846 0 
213 401 450 1 2.66454e-15 12 -20.7846 0 
214 401 452 1 2.39808e-14 -12 -20.7846 0 
215 403 452 1 2.39808e-14 12 -20.7846 0 
216 403 454 1 2.39808e-14 -12 -20.7846 0 
217 405 454 1 2.39808e-14 12 -20.7846 0 
218 405 456 1 2.66454e-15 -12 -20.7846 0 
219 407 456 1 2.39808e-14 12 -20.7846 0 
220 407 458 1 2.39808e-14 -12 -20.7846 0 
221 409 458 1 2.39808e-14 12 -20.7846 0 
222 409 460 1 2.39808e-14 -12 -20.7846 0 
223 411 460 1 2.39808e-14 12 -20.7846 0 
224 411 462 1 2.39808e-14 -12 -20.7846 0 
225 413 462 1 2.39808e-14 12 -20.7846 0 
226 415 464 1 2.39808e-14 12 -20.7846 0 
227 415 466 1 2.39808e-14 -12 -20.7846 0 
228 417 466 1 2.39808e-14 12 -20.7846 0 
229 417 468 1 2.39808e-14 -12 -20.7846 0 
230 419 468 1 2.39808e-14 12 -20.7846 0 
231 419 470 1 2.39808e-14 -12 -20.7846 0 
232 421 470 1 2.39808e-14 12 -20.7846 0 
233 421 472 1 2.39808e-14 -12 -20.7846 0 
234 423 472 1 2.39808e-14 12 -20.7846 0 
235 423 474 1 2.39808e-14 -12 -20.7846 0 
236 425 1651 1 2.39808e-14 -12 -20.7846 0 
237 426 1650 1 4.50306e-13 12 20.7846 0 
238 426 1700 1 4.13003e-13 12 -20.7846 0 
239 427 476 1 2.13163e-14 12 -20.7846 0 
240 427 478 1 2.13163e-14 -12 -20.7846 0 
241 429 478 1 2.13163e-14 12 -20.7846 0 
242 429 480 1 1.86517e-14 -12 -20.7846 0 
243 431 480 1 1.86517e-14 12 -20.7846 0 
244 431 482 1 2.39808e-14 -12 -20.7846 0 
245 433 482 1 1.86517e-14 12 -20.7846 0 
246 433 484 1 1.86517e-14 -12 -20.7846 0 
247 435 484 1 2.39808e-14 12 -20.7846 0 
248 435 486 1 1.33227e-14 -12 -20.7846 0 
249 437 486 1 2.39808e-14 12 -20.7846 0 
250 437 488 1 2.39808e-14 -12 -20.7846 0 
251 439 488 1 1.33227e-14 12 -20.7846 0 
252 439 490 1 2.39808e-14 -12 -20.7846 0 
253 441 490 1 1.33227e-14 12 -20.7846 0 
254 441 492 1 2.39808e-14 -12 -20.7846 0 
255 443 492 1 2.39808e-14 12 -20.7846 0 
256 443 494 1 2.39808e-14 -12 -20.7846 0 
257 445 494 1 2.66454e-15 12 -20.7846 0 
258 445 496 1 2.39808e-14 -12 -20.7846 0 
259 447 496 1 2.39808e-14 12 -20.7846 0 
260 447 498 1 2.39808e-14 -12 -20.7846 0 
261 449 498 1 2.39808e-14 12 -20.7846 0 
262 449 500 1 2.39808e-14 -12 -20.7846 0 
263 451 500 1 2.66454e-15 12 -20.7846 0 
264 451 502 1 2.39808e-14 -12 -20.7846 0 
265 453 502 1 2.39808e-14 12 -20.7846 0 
266 453 504 1 2.39808e-14 -12 -20.7846 0 
267 455 504 1 2.39808e-14 12 -20.7846 0 
268 455 506 1 2.66454e-15 -12 -20.7846 0 
269 457 506 1 2.39808e-14 12 -20.7846 0 
270 457 508 1 2.39808e-14 -12 -20.7846 0 
271 459 508 1 2.39808e-14 12 -20.7846 0 
272 459 510 1 2.39808e-14 -12 -20.7846 0 
273 461 510 1 2.39808e-14 12 -20.7846 0 
274 461 512 1 2.39808e-14 -12 -20.7846 0 
275 463 512 1 2.39808e-14 12 -20.7846 0 
276 465 514 1 2.39808e-14 12 -20.7846 0 
277 465 516 1 2.39808e-14 -12 -20.7846 0 
278 467 516 1 2.39808e-14 12 -20.7846 0 
279 467 518 1 2.39808e-14 -12 -20.7846 0 
280 469 518 1 2.39808e-14 12 -20.7846 0 
281 469 520 1 2.39808e-14 -12 -20.7846 0 
282 471 520 1 2.39808e-14 12 -20.7846 0 
283 471 522 1 2.39808e-14 -12 -20.7846 0 
284 473 522 1 2.39808e-14 12 -20.7846 0 
285 473 524 1 2.39808e-14 -12 -20.7846 0 
286 475 1701 1 2.39808e-14 -12 -20.7846 0 
287 476 1700 1 4.50306e-13 12 20.7846 0 
288 476 1750 1 3.78364e-13 12 -20.7846 0 
289 526 1750 1 3.78364e-13 12 20.7846 0 
290 526 1800 1 4.50306e-13 12 -20.7846 0 
291 526 527 1 2.13163e-14 -12 -20.7846 0 
292 528 527 1 2.13163e-14 12 -20.7846 0 
293 528 529 1 2.13163e-14 -12 -20.7846 0 
294 530 529 1 1.86517e-14 12 -20.7846 0 
295 530 531 1 1.86517e-14 -12 -20.7846 0 
296 532 531 1 2.39808e-14 12 -20.7846 0 
297 532 533 1 1.86517e-14 -12 -20.7846 0 
298 534 533 1 1.86517e-14 12 -20.7846 0 
299 534 535 1 2.39808e-14 -12 -20.7846 0 
300 536 535 1 1.33227e-14 12 -20.7846 0 
301 536 537 1 2.39808e-14 -12 -20.7846 0 
302 538 537 1 2.39808e-14 12 -20.7846 0 
303 538 539 1 1.33227e-14 -12 -20.7846 0 
304 540 539 1 2.39808e-14 12 -20.7846 0 
305 540 541 1 1.33227e-14 -12 -20.7846 0 
306 542 541 1 2.39808e-14 12 -20.7846 0 
307 542 543 1 2.39808e-14 -12 -20.7846 0 
308 544 543 1 2.39808e-14 12 -20.7846 0 
309 544 545 1 2.66454e-15 -12 -20.7846 0 
310 546 545 1 2.39808e-14 12 -20.7846 0 
311 546 547 1 2.39808e-14 -12 -20.7846 0 
312 548 547 1 2.39808e-14 12 -20.7846 0 
313 548 549 1 2.39808e-14 -12 -20.7846 0 
314 550 549 1 2.39808e-14 12 -20.7846 0 
315 550 551 1 2.66454e-15 -12 -20.7846 0 
316 552 551 1 2.39808e-14 12 -20.7846 0 
317 552 553 1 2.39808e-14 -12 -20.7846 0 
318 554 553 1 2.39808e-14 12 -20.7846 0 
319 554 555 1 2.39808e-14 -12 -20.7846 0 
320 556 555 1 2.66454e-15 12 -20.7846 0 
321 556 557 1 2.39808e-14 -12 -20.7846 0 
322 558 557 1 2.39808e-14 12 -20.7846 0 
323 558 559 1 2.39808e-14 -12 -20.7846 0 
324 560 559 1 2.39808e-14 12 -20.7846 0 
325 560 561 1 2.39808e-14 -12 -20.7846 0 
326 562 561 1 2.39808e-14 12 -20.7846 0 
327 562 563 1 2.39808e-14 -12 -20.7846 0 
328 564 565 1 2.39808e-14 -12 -20.7846 0 
329 566 565 1 2.39808e-14 12 -20.7846 0 
330 566 567 1 2.39808e-14 -12 -20.7846 0 
331 568 567 1 2.39808e-14 12 -20.7846 0 
332 568 569 1 2.39808e-14 -12 -20.7846 0 
333 570 569 1 2.39808e-14 12 -20.7846 0 
334 570 571 1 2.39808e-14 -12 -20.7846 0 
335 572 571 1 2.39808e-14 12 -20.7846 0 
336 572 573 1 2.39808e-14 -12 -20.7846 0 
337 574 573 1 2.39808e-14 12 -20.7846 0 
338 575 1751 1 2.39808e-14 -12 20.7846 0 
339 576 1800 1 3.78364e-13 12 20.7846 0 
340 576 1850 1 4.50306e-13 12 -20.7846 0 
341 576 577 1 2.13163e-14 -12 -20.7846 0 
342 578 577 1 2.13163e-14 12 -20.7846 0 
343 578 579 1 2.13163e-14 -12 -20.7846 0 
344 580 579 1 1.86517e-14 12 -20.7846 0 
345 580 581 1 1.86517e-14 -12 -20.7846 0 
346 582 581 1 2.39808e-14 12 -20.7846 0 
347 582 583 1 1.86517e-14 -12 -20.7846 0 
348 584 583 1 1.86517e-14 12 -20.7846 0 
349 584 585 1 2.39808e-14 -12 -20.7846 0 
350 586 585 1 1.33227e-14 12 -20.7846 0 
351 586 587 1 2.39808e-14 -12 -20.7846 0 
352 588 587 1 2.39808e-14 12 -20.7846 0 
353 588 589 1 1.33227e-14 -12 -20.7846 0 
354 590 589 1 2.39808e-14 12 -20.7846 0 
355 590 591 1 1.33227e-14 -12 -20.7846 0 
356 592 591 1 2.39808e-14 12 -20.7846 0 
357 592 593 1 2.39808e-14 -12 -20.7846 0 
358 594 593 1 2.39808e-14 12 -20.7846 0 
359 594 595 1 2.66454e-15 -12 -20.7846 0 
360 596 595 1 2.39808e-14 12 -20.7846 0 
361 596 597 1 2.39808e-14 -12 -20.7846 0 
362 598 597 1 2.39808e-14 12 -20.7846 0 
363 598 599 1 2.39808e-14 -12 -20.7846 0 
364 600 599 1 2.39808e-14 12 -20.7846 0 
365 600 601 1 2.66454e-15 -12 -20.7846 0 
366 602 601 1 2.39808e-14 12 -20.7846 0 
367 602 603 1 2.39808e-14 -12 -20.7846 0 
368 604 603 1 2.39808e-14 12 -20.7846 0 
369 604 605 1 2.39808e-14 -12 -20.7846 0 
370 606 605 1 2.66454e-15 12 -20.7846 0 
371 606 607 1 2.39808e-14 -12 -20.7846 0 
372 608 607 1 2.39808e-14 12 -20.7846 0 
373 608 609 1 2.39808e-14 -12 -20.7846 0 
374 610 609 1 2.39808e-14 12 -20.7846 0 
375 610 611 1 2.39808e-14 -12 -20.7846 0 
376 612 611 1 2.39808e-14 12 -20.7846 0 
377 612 613 1 2.39808e-14 -12 -20.7846 0 
378 614 615 1 2.39808e-14 -12 -20.7846 0 
379 616 615 1 2.39808e-14 12 -20.7846 0 
380 616 617 1 2.39808e-14 -12 -20.7846 0 
381 618 617 1 2.39808e-14 12 -20.7846 0 
382 618 619 1 2.39808e-14 -12 -20.7846 0 
383 620 619 1 2.39808e-14 12 -20.7846 0 
384 620 621 1 2.39808e-14 -12 -20.7846 0 
385 622 621 1 2.39808e-14 12 -20.7846 0 
386 622 623 1 2.39808e-14 -12 -20.7846 0 
387 624 623 1 2.39808e-14 12 -20.7846 0 
388 577 626 1 2.13163e-14 12 -20.7846 0 
389 577 628 1 2.13163e-14 -12 -20.7846 0 
390 579 628 1 2.13163e-14 12 -20.7846 0 
391 579 630 1 1.86517e-14 -12 -20.7846 0 
392 581 630 1 1.86517e-14 12 -20.7846 0 
393 581 632 1 2.39808e-14 -12 -20.7846 0 
394 583 632 1 1.86517e-14 12 -20.7846 0 
395 583 634 1 1.86517e-14 -12 -20.7846 0 
396 585 634 1 2.39808e-14 12 -20.7846 0 
397 585 636 1 1.33227e-14 -12 -20.7846 0 
398 587 636 1 2.39808e-14 12 -20.7846 0 
399 587 638 1 2.39808e-14 -12 -20.7846 0 
400 589 638 1 1.33227e-14 12 -20.7846 0 
401 589 640 1 2.39808e-14 -12 -20.7846 0 
402 591 640 1 1.33227e-14 12 -20.7846 0 
403 591 642 1 2.39808e-14 -12 -20.7846 0 
404 593 642 1 2.39808e-14 12 -20.7846 0 
405 593 644 1 2.39808e-14 -12 -20.7846 0 
406 595 644 1 2.66454e-15 12 -20.7846 0 
407 595 646 1 2.39808e-14 -12 -20.7846 0 
408 597 646 1 2.39808e-14 12 -20.7846 0 
409 597 648 1 2.39808e-14 -12 -20.7846 0 
410 599 648 1 2.39808e-14 12 -20.7846 0 
411 599 650 1 2.39808e-14 -12 -20.7846 0 
412 601 650 1 2.66454e-15 12 -20.7846 0 
413 601 652 1 2.39808e-14 -12 -20.7846 0 
414 603 652 1 2.39808e-14 12 -20.7846 0 
415 603 654 1 2.39808e-14 -12 -20.7846 0 
416 605 654 1 2.39808e-14 12 -20.7846 0 
417 605 656 1 2.66454e-15 -12 -20.7846 0 
418 607 656 1 2.39808e-14 12 -20.7846 0 
419 607 658 1 2.39808e-14 -12 -20.7846 0 
420 609 658 1 2.39808e-14 12 -20.7846 0 
421 609 660 1 2.39808e-14 -12 -20.7846 0 
422 611 660 1 2.39808e-14 12 -20.7846 0 
423 611 662 1 2.39808e-14 -12 -20.7846 0 
424 613 662 1 2.39808e-14 12 -20.7846 0 
425 615 664 1 2.39808e-14 12 -20.7846 0 
426 615 666 1 2.39808e-14 -12 -20.7846 0 
427 617 666 1 2.39808e-14 12 -20.7846 0 
428 617 668 1 2.39808e-14 -12 -20.7846 0 
429 619 668 1 2.39808e-14 12 -20.7846 0 
430 619 670 1 2.39808e-14 -12 -20.7846 0 
431 621 670 1 2.39808e-14 12 -20.7846 0 
432 621 672 1 2.39808e-14 -12 -20.7846 0 
433 623 672 1 2.39808e-14 12 -20.7846 0 
434 623 674 1 2.39808e-14 -12 -20.7846 0 
435 625 1801 1 2.39808e-14 -12 20.7846 0 
436 625 1851 1 2.39808e-14 -12 -20.7846 0 
437 626 1850 1 4.50306e-13 12 20.7846 0 
438 626 1900 1 4.50306e-13 12 -20.7846 0 
439 626 627 1 2.13163e-14 -12 -20.7846 0 
440 628 627 1 2.13163e-14 12 -20.7846 0 
441 628 629 1 2.13163e-14 -12 -20.7846 0 
442 630 629 1 1.86517e-14 12 -20.7846 0 
443 630 631 1 1.86517e-14 -12 -20.7846 0 
444 632 631 1 2.39808e-14 12 -20.7846 0 
445 632 633 1 1.86517e-14 -12 -20.7846 0 
446 634 633 1 1.86517e-14 12 -20.7846 0 
447 634 635 1 2.39808e-14 -12 -20.7846 0 
448 636 635 1 1.33227e-14 12 -20.7846 0 
449 636 637 1 2.39808e-14 -12 -20.7846 0 
450 638 637 1 2.39808e-14 12 -20.7846 0 
451 638 639 1 1.33227e-14 -12 -20.7846 0 
452 640 639 1 2.39808e-14 12 -20.7846 0 
453 640 641 1 1.33227e-14 -12 -20.7846 0 
454 642 641 1 2.39808e-14 12 -20.7846 0 
455 642 643 1 2.39808e-14 -12 -20.7846 0 
456 644 643 1 2.39808e-14 12 -20.7846 0 
457 644 645 1 2.66454e-15 -12 -20.7846 0 
458 646 645 1 2.39808e-14 12 -20.7846 0 
459 646 647 1 2.39808e-14 -12 -20.7846 0 
460 648 647 1 2.39808e-14 12 -20.7846 0 
461 648 649 1 2.39808e-14 -12 -20.7846 0 
462 650 649 1 2.39808e-14 12 -20.7846 0 
463 650 651 1 2.66454e-15 -12 -20.7846 0 
464 652 651 1 2.39808e-14 12 -20.7846 0 
465 652 653 1 2.39808e-14 -12 -20.7846 0 
466 654 653 1 2.39808e-14 12 -20.7846 0 
467 654 655 1 2.39808e-14 -12 -20.7846 0 
468 656 655 1 2.66454e-15 12 -20.7846 0 
469 656 657 1 2.39808e-14 -12 -20.7846 0 
470 658 657 1 2.39808e-14 12 -20.7846 0 
471 658 659 1 2.39808e-14 -12 -20.7846 0 
472 660 659 1 2.39808e-14 12 -20.7846 0 
473 660 661 1 2.39808e-14 -12 -20.7846 0 
474 662 661 1 2.39808e-14 12 -20.7846 0 
475 662 663 1 2.39808e-14 -12 -20.7846 0 
476 664 665 1 2.39808e-14 -12 -20.7846 0 
477 666 665 1 2.39808e-14 12 -20.7846 0 
478 666 667 1 2.39808e-14 -12 -20.7846 0 
479 668 667 1 2.39808e-14 12 -20.7846 0 
480 668 669 1 2.39808e-14 -12 -20.7846 0 
481 670 669 1 2.39808e-14 12 -20.7846 0 
482 670 671 1 2.39808e-14 -12 -20.7846 0 
483 672 671 1 2.39808e-14 12 -20.7846 0 
484 672 673 1 2.39808e-14 -12 -20.7846 0 
485 674 673 1 2.39808e-14 12 -20.7846 0 
486 675 1851 1 2.39808e-14 -12 20.7846 0 
487 676 1900 1 3.03757e-13 12 20.7846 0 
488 676 1950 1 4.50306e-13 12 -20.7846 0 
489 676 677 1 2.13163e-14 -12 -20.7846 0 
490 678 677 1 2.13163e-14 12 -20.7846 0 
491 678 679 1 2.13163e-14 -12 -20.7846 0 
492 680 679 1 1.86517e-14 12 -20.7846 0 
493 680 681 1 1.86517e-14 -12 -20.7846 0 
494 682 681 1 2.39808e-14 12 -20.7846 0 
495 682 683 1 1.86517e-14 -12 -20.7846 0 
496 684 683 1 1.86517e-14 12 -20.7846 0 
497 684 685 1 2.39808e-14 -12 -20.7846 0 
498 686 685 1 1.33227e-14 12 -20.7846 0 
499 686 687 1 2.39808e-14 -12 -20.7846 0 
500 688 687 1 2.39808e-14 12 -20.7846 0 
501 688 689 1 1.33227e-14 -12 -20.7846 0 
502 690 689 1 2.39808e-14 12 -20.7846 0 
503 690 691 1 1.33227e-14 -12 -20.7846 0 
504 692 691 1 2.39808e-14 12 -20.7846 0 
505 692 693 1 2.39808e-14 -12 -20.7846 0 
506 694 693 1 2.39808e-14 12 -20.7846 0 
507 694 695 1 2.66454e-15 -12 -20.7846 0 
508 696 695 1 2.39808e-14 12 -20.7846 0 
509 696 697 1 2.39808e-14 -12 -20.7846 0 
510 698 697 1 2.39808e-14 12 -20.7846 0 
511 698 699 1 2.39808e-14 -12 -20.7846 0 
512 700 699 1 2.39808e-14 12 -20.7846 0 
513 700 701 1 2.66454e-15 -12 -20.7846 0 
514 702 701 1 2.39808e-14 12 -20.7846 0 
515 702 703 1 2.39808e-14 -12 -20.7846 0 
516 704 703 1 2.39808e-14 12 -20.7846 0 
517 704 705 1 2.39808e-14 -12 -20.7846 0 
518 706 705 1 2.66454e-15 12 -20.7846 0 
519 706 707 1 2.39808e-14 -12 -20.7846 0 
520 708 707 1 2.39808e-14 12 -20.7846 0 
521 708 709 1 2.39808e-14 -12 -20.7846 0 
522 710 709 1 2.39808e-14 12 -20.7846 0 
523 710 711 1 2.39808e-14 -12 -20.7846 0 
524 712 711 1 2.39808e-14 12 -20.7846 0 
525 712 713 1 2.39808e-14 -12 -20.7846 0 
526 714 715 1 2.39808e-14 -12 -20.7846 0 
527 716 715 1 2.39808e-14 12 -20.7846 0 
528 716 717 1 2.39808e-14 -12 -20.7846 0 
529 718 717 1 2.39808e-14 12 -20.7846 0 
530 718 719 1 2.39808e-14 -12 -20.7846 0 
531 720 719 1 2.39808e-14 12 -20.7846 0 
532 720 721 1 2.39808e-14 -12 -20.7846 0 
533 722 721 1 2.39808e-14 12 -20.7846 0 
534 722 723 1 2.39808e-14 -12 -20.7846 0 
535 724 723 1 2.39808e-14 12 -20.7846 0 
536 677 726 1 2.13163e-14 12 -20.7846 0 
537 677 728 1 2.13163e-14 -12 -20.7846 0 
538 679 728 1 2.13163e-14 12 -20.7846 0 
539 679 730 1 1.86517e-14 -12 -20.7846 0 
540 681 730 1 1.86517e-14 12 -20.7846 0 
541 681 732 1 2.39808e-14 -12 -20.7846 0 
542 683 732 1 1.86517e-14 12 -20.7846 0 
543 683 734 1 1.86517e-14 -12 -20.7846 0 
544 685 734 1 2.39808e-14 12 -20.7846 0 
545 685 736 1 1.33227e-14 -12 -20.7846 0 
546 687 736 1 2.39808e-14 12 -20.7846 0 
547 687 738 1 2.39808e-14 -12 -20.7846 0 
548 689 738 1 1.33227e-14 12 -20.7846 0 
549 689 740 1 2.39808e-14 -12 -20.7846 0 
550 691 740 1 1.33227e-14 12 -20.7846 0 
551 691 742 1 2.39808e-14 -12 -20.7846 0 
552 693 742 1 2.39808e-14 12 -20.7846 0 
553 693 744 1 2.39808e-14 -12 -20.7846 0 
554 695 744 1 2.66454e-15 12 -20.7846 0 
555 695 746 1 2.39808e-14 -12 -20.7846 0 
556 697 746 1 2.39808e-14 12 -20.7846 0 
557 697 748 1 2.39808e-14 -12 -20.7846 0 
558 699 748 1 2.39808e-14 12 -20.7846 0 
559 699 750 1 2.39808e-14 -12 -20.7846 0 
560 701 750 1 2.66454e-15 12 -20.7846 0 
561 701 752 1 2.39808e-14 -12 -20.7846 0 
562 703 752 1 2.39808e-14 12 -20.7846 0 
563 703 754 1 2.39808e-14 -12 -20.7846 0 
564 705 754 1 2.39808e-14 12 -20.7846 0 
565 705 756 1 2.66454e-15 -12 -20.7846 0 
566 707 756 1 2.39808e-14 12 -20.7846 0 
567 707 758 1 2.39808e-14 -12 -20.7846 0 
568 709 758 1 2.39808e-14 12 -20.7846 0 
569 709 760 1 2.39808e-14 -12 -20.7846 0 
570 711 760 1 2.39808e-14 12 -20.7846 0 
571 711 762 1 2.39808e-14 -12 -20.7846 0 
572 713 762 1 2.39808e-14 12 -20.7846 0 
573 715 764 1 2.39808e-14 12 -20.7846 0 
574 715 766 1 2.39808e-14 -12 -20.7846 0 
575 717 766 1 2.39808e-14 12 -20.7846 0 
576 717 768 1 2.39808e-14 -12 -20.7846 0 
577 719 768 1 2.39808e-14 12 -20.7846 0 
578 719 770 1 2.39808e-14 -12 -20.7846 0 
579 721 770 1 2.39808e-14 12 -20.7846 0 
580 721 772 1 2.39808e-14 -12 -20.7846 0 
581 723 772 1 2.39808e-14 12 -20.7846 0 
582 723 774 1 2.39808e-14 -12 -20.7846 0 
583 725 1901 1 2.39808e-14 -12 20.7846 0 
584 725 1951 1 2.39808e-14 -12 -20.7846 0 
585 726 1950 1 4.50306e-13 12 20.7846 0 
586 726 2000 1 3.78364e-13 12 -20.7846 0 
587 727 776 1 2.13163e-14 12 -20.7846 0 
588 727 778 1 2.13163e-14 -12 -20.7846 0 
589 729 778 1 2.13163e-14 12 -20.7846 0 
590 729 780 1 1.86517e-14 -12 -20.7846 0 
591 731 780 1 1.86517e-14 12 -20.7846 0 
592 731 782 1 2.39808e-14 -12 -20.7846 0 
593 733 782 1 1.86517e-14 12 -20.7846 0 
594 733 784 1 1.86517e-14 -12 -20.7846 0 
595 735 784 1 2.39808e-14 12 -20.7846 0 
596 735 786 1 1.33227e-14 -12 -20.7846 0 
597 737 786 1 2.39808e-14 12 -20.7846 0 
598 737 788 1 2.39808e-14 -12 -20.7846 0 
599 739 788 1 1.33227e-14 12 -20.7846 0 
600 739 790 1 2.39808e-14 -12 -20.7846 0 
601 741 790 1 1.33227e-14 12 -20.7846 0 
602 741 792 1 2.39808e-14 -12 -20.7846 0 
603 743 792 1 2.39808e-14 12 -20.7846 0 
604 743 794 1 2.39808e-14 -12 -20.7846 0 
605 745 794 1 2.66454e-15 12 -20.7846 0 
606 745 796 1 2.39808e-14 -12 -20.7846 0 
607 747 796 1 2.39808e-14 12 -20.7846 0 
608 747 798 1 2.39808e-14 -12 -20.7846 0 
609 749 798 1 2.39808e-14 12 -20.7846 0 
610 749 800 1 2.39808e-14 -12 -20.7846 0 
611 751 800 1 2.66454e-15 12 -20.7846 0 
612 751 802 1 2.39808e-14 -12 -20.7846 0 
613 753 802 1 2.39808e-14 12 -20.7846 0 
614 753 804 1 2.39808e-14 -12 -20.7846 0 
615 755 804 1 2.39808e-14 12 -20.7846 0 
616 755 806 1 2.66454e-15 -12 -20.7846 0 
617 757 806 1 2.39808e-14 12 -20.7846 0 
618 757 808 1 2.39808e-14 -12 -20.7846 0 
619 759 808 1 2.39808e-14 12 -20.7846 0 
620 759 810 1 2.39808e-14 -12 -20.7846 0 
621 761 810 1 2.39808e-14 12 -20.7846 0 
622 761 812 1 2.39808e-14 -12 -20.7846 0 
623 763 812 1 2.39808e-14 12 -20.7846 0 
624 765 814 1 2.39808e-14 12 -20.7846 0 
625 765 816 1 2.39808e-14 -12 -20.7846 0 
626 767 816 1 2.39808e-14 12 -20.7846 0 
627 767 818 1 2.39808e-14 -12 -20.7846 0 
628 769 818 1 2.39808e-14 12 -20.7846 0 
629 769 820 1 2.39808e-14 -12 -20.7846 0 
630 771 820 1 2.39808e-14 12 -20.7846 0 
631 771 822 1 2.39808e-14 -12 -20.7846 0 
632 773 822 1 2.39808e-14 12 -20.7846 0 
633 773 824 1 2.39808e-14 -12 -20.7846 0 
634 775 2001 1 2.39808e-14 -12 -20.7846 0 
635 776 2000 1 4.50306e-13 12 20.7846 0 
636 776 2050 1 4.50306e-13 12 -20.7846 0 
637 776 777 1 2.13163e-14 -12 -20.7846 0 
638 778 777 1 2.13163e-14 12 -20.7846 0 
639 778 779 1 2.13163e-14 -12 -20.7846 0 
640 780 779 1 1.86517e-14 12 -20.7846 0 
641 780 781 1 1.86517e-14 -12 -20.7846 0 
642 782 781 1 2.39808e-14 12 -20.7846 0 
643 782 783 1 1.86517e-14 -12 -20.7846 0 
644 784 783 1 1.86517e-14 12 -20.7846 0 
645 784 785 1 2.39808e-14 -12 -20.7846 0 
646 786 785 1 1.33227e-14 12 -20.7846 0 
647 786 787 1 2.39808e-14 -12 -20.7846 0 
648 788 787 1 2.39808e-14 12 -20.7846 0 
649 788 789 1 1.33227e-14 -12 -20.7846 0 
650 790 789 1 2.39808e-14 12 -20.7846 0 
651 790 791 1 1.33227e-14 -12 -20.7846 0 
652 792 791 1 2.39808e-14 12 -20.7846 0 
653 792 793 1 2.39808e-14 -12 -20.7846 0 
654 794 793 1 2.39808e-14 12 -20.7846 0 
655 794 795 1 2.66454e-15 -12 -20.7846 0 
656 796 795 1 2.39808e-14 12 -20.7846 0 
657 796 797 1 2.39808e-14 -12 -20.7846 0 
658 798 797 1 2.39808e-14 12 -20.7846 0 
659 798 799 1 2.39808e-14 -12 -20.7846 0 
660 800 799 1 2.39808e-14 12 -20.7846 0 
661 800 801 1 2.66454e-15 -12 -20.7846 0 
662 802 801 1 2.39808e-14 12 -20.7846 0 
663 802 803 1 2.39808e-14 -12 -20.7846 0 
664 804 803 1 2.39808e-14 12 -20.7846 0 
665 804 805 1 2.39808e-14 -12 -20.7846 0 
666 806 805 1 2.66454e-15 12 -20.7846 0 
667 806 807 1 2.39808e-14 -12 -20.7846 0 
668 808 807 1 2.39808e-14 12 -20.7846 0 
669 808 809 1 2.39808e-14 -12 -20.7846 0 
670 810 809 1 2.39808e-14 12 -20.7846 0 
671 810 811 1 2.39808e-14 -12 -20.7846 0 
672 812 811 1 2.39808e-14 12 -20.7846 0 
673 812 813 1 2.39808e-14 -12 -20.7846 0 
674 814 815 1 2.39808e-14 -12 -20.7846 0 
675 816 815 1 2.39808e-14 12 -20.7846 0 
676 816 817 1 2.39808e-14 -12 -20.7846 0 
677 818 817 1 2.39808e-14 12 -20.7846 0 
678 818 819 1 2.39808e-14 -12 -20.7846 0 
679 820 819 1 2.39808e-14 12 -20.7846 0 
680 820 821 1 2.39808e-14 -12 -20.7846 0 
681 822 821 1 2.39808e-14 12 -20.7846 0 
682 822 823 1 2.39808e-14 -12 -20.7846 0 
683 824 823 1 2.39808e-14 12 -20.7846 0 
684 825 2001 1 2.39808e-14 -12 20.7846 0 
685 826 2050 1 3.03757e-13 12 20.7846 0 
686 826 2100 1 4.50306e-13 12 -20.7846 0 
687 826 827 1 2.13163e-14 -12 -20.7846 0 
688 828 827 1 2.13163e-14 12 -20.7846 0 
689 828 829 1 2.13163e-14 -12 -20.7846 0 
690 830 829 1 1.86517e-14 12 -20.7846 0 
691 830 831 1 1.86517e-14 -12 -20.7846 0 
692 832 831 1 2.39808e-14 12 -20.7846 0 
693 832 833 1 1.86517e-14 -12 -20.7846 0 
694 834 833 1 1.86517e-14 12 -20.7846 0 
695 834 835 1 2.39808e-14 -12 -20.7846 0 
696 836 835 1 1.33227e-14 12 -20.7846 0 
697 836 837 1 2.39808e-14 -12 -20.7846 0 
698 838 837 1 2.39808e-14 12 -20.7846 0 
699 838 839 1 1.33227e-14 -12 -20.7846 0 
700 840 839 1 2.39808e-14 12 -20.7846 0 
701 840 841 1 1.33227e-14 -12 -20.7846 0 
702 842 841 1 2.39808e-14 12 -20.7846 0 
703 842 843 1 2.39808e-14 -12 -20.7846 0 
704 844 843 1 2.39808e-14 12 -20.7846 0 
705 844 845 1 2.66454e-15 -12 -20.7846 0 
706 846 845 1 2.39808e-14 12 -20.7846 0 
707 846 847 1 2.39808e-14 -12 -20.7846 0 
708 848 847 1 2.39808e-14 12 -20.7846 0 
709 848 849 1 2.39808e-14 -12 -20.7846 0 
710 850 849 1 2.39808e-14 12 -20.7846 0 
711 850 851 1 2.66454e-15 -12 -20.7846 0 
712 852 851 1 2.39808e-14 12 -20.7846 0 
713 852 853 1 2.39808e-14 -12 -20.7846 0 
714 854 853 1 2.39808e-14 12 -20.7846 0 
715 854 855 1 2.39808e-14 -12 -20.7846 0 
716 856 855 1 2.66454e-15 12 -20.7846 0 
717 856 857 1 2.39808e-14 -12 -20.7846 0 
718 858 857 1 2.39808e-14 12 -20.7846 0 