LAMMPS (10 Mar 2021)
variable    disorder equal ${D}
variable    disorder equal 0
variable	dia1 equal 1+${disorder}
variable	dia1 equal 1+0
variable	dia2 equal 1-${disorder}
variable	dia2 equal 1-0
variable    dia12 equal  (${dia1}+${dia2})/2
variable    dia12 equal  (1+${dia2})/2
variable    dia12 equal  (1+1)/2
variable    sigma_3b equal  (1+${dia1})/2
variable    sigma_3b equal  (1+1)/2
variable    sigma_3a equal  (1+${dia2})/2
variable    sigma_3a equal  (1+1)/2
variable    alpha equal  1.1
variable 	r_cut_a equal ${dia1}*${alpha}
variable 	r_cut_a equal 1*${alpha}
variable 	r_cut_a equal 1*1.1
variable 	r_cut_b equal ${dia2}*${alpha}
variable 	r_cut_b equal 1*${alpha}
variable 	r_cut_b equal 1*1.1
variable 	r_cut_ab equal ${dia12}*${alpha}
variable 	r_cut_ab equal 1*${alpha}
variable 	r_cut_ab equal 1*1.1
variable 	r_cut_3b equal ${sigma_3b}*${alpha}
variable 	r_cut_3b equal 1*${alpha}
variable 	r_cut_3b equal 1*1.1
variable 	r_cut_3a equal ${sigma_3a}*${alpha}
variable 	r_cut_3a equal 1*${alpha}
variable 	r_cut_3a equal 1*1.1
variable    radsum equal .5*((${dia1}+${dia2})/2-.25)
variable    radsum equal .5*((1+${dia2})/2-.25)
variable    radsum equal .5*((1+1)/2-.25)
variable    angle equal 180*(PI/180)
variable	radsumx equal ${radsum}*cos(${angle})
variable	radsumx equal 0.375*cos(${angle})
variable	radsumx equal 0.375*cos(3.14159265358979)
variable	radsumy equal ${radsum}*sin(${angle})
variable	radsumy equal 0.375*sin(${angle})
variable	radsumy equal 0.375*sin(3.14159265358979)
variable    t equal "step*dt"

 ##Input Script##
boundary        p p p
dimension 	    2
atom_style      sphere
units           lj
lattice         sq 3.567
Lattice spacing in x,y,z = 0.52947864 0.52947864 0.52947864
region		    box block -10 10 -10 15 -1.5 1.5 units box
atom_modify     map     array
neighbor        2.0 nsq
create_box      3 box
Created orthogonal box = (-10.000000 -10.000000 -1.5000000) to (10.000000 15.000000 1.5000000)
  2 by 2 by 1 MPI processor grid
comm_modify    vel yes
create_atoms    1 single 0 0 0 units box
Created 1 atoms
  create_atoms CPU = 0.000 seconds
create_atoms    2 single ${radsumx} ${radsumy} 0 units box
create_atoms    2 single -0.375 ${radsumy} 0 units box
create_atoms    2 single -0.375 1.21165843082444e-15 0 units box
Created 1 atoms
  create_atoms CPU = 0.000 seconds
# create_atoms    3 single 5 0 0 units box

set             type 1 diameter ${dia1}
set             type 1 diameter 1
Setting atom values ...
  1 settings made for diameter
set             type 2 diameter ${dia2}
set             type 2 diameter 1
Setting atom values ...
  1 settings made for diameter
# set             type 3 diameter 5

variable        tstep equal  .000001
variable        rstep equal .01/${tstep}
variable        rstep equal .01/1e-06
timestep        ${tstep}
timestep        1e-06
#put z=0 all the time
# fix 	2d  all enforce2d

# fix			gravity_ all gravity 10 spherical 0.0 180.0
# fix 	        wall all wall/gran/region hooke 1e5 NULL 100.0 NULL 0.5 0 region box
# fix 	        wall all wall/gran hooke 1e5 NULL 1000.0 NULL 0 1 yplane -10.0 NULL

## --------------------------------------------------------------------------
# pair_style      lj/cut 1
# pair_coeff      * * 1.0 1.0
# pair_style		gran/hooke 1e5 NULL 1000.0 NULL 0.5 0
# pair_coeff    	* *
# pair_style		gran/hooke 1e5 0 0 0 0 0
# pair_coeff    	* *
# pair_style        python 2.5
# pair_coeff        * * py_pot2.customhooke lj1 lj2 lj2
# Size while using custom hooke will not matter as everything is

# pair_style table linear 2000
# pair_coeff 1 1 hooke11.table ENTRY1 1.65
# pair_coeff 1 2 hooke12.table ENTRY1	1.1
# pair_coeff 2 2 hooke22.table ENTRY1 .55

# pair_style python 1.1
# pair_coeff * * py_pot2.customhooke lj1 lj2
# shell rm hooke11.table
# shell rm hooke12.table
# shell rm hooke22.table
# pair_write  1 1 2000000 r 0.000001 ${r_cut_a} hooke11.table ENTRY1
# pair_write  1 2 2000000 r 0.000001 ${r_cut_ab} hooke12.table ENTRY1
# pair_write  2 2 2000000 r 0.000001 ${r_cut_b} hooke22.table ENTRY1
# pair_style table linear 2000000
# pair_coeff 1 1 hooke11.table ENTRY1
# pair_coeff 1 2 hooke12.table ENTRY1
# pair_coeff 2 2 hooke22.table ENTRY1

pair_style python 2
pair_coeff * * py_pot2.customhooke lj1 lj2 lj3
shell rm hooke11.table
shell rm hooke22.table
shell rm hooke33.table
shell rm hooke12.table
shell rm hooke13.table
shell rm hooke23.table
pair_write  1 1 2000001 r 0.1 ${r_cut_a} hooke11.table ENTRY1
pair_write  1 1 2000001 r 0.1 1.1 hooke11.table ENTRY1
Creating table file hooke11.table with DATE: 2021-11-26
Neighbor list info ...
  update every 1 steps, delay 10 steps, check yes
  max neighbors/atom: 2000, page size: 100000
  master list distance cutoff = 4
  ghost atom cutoff = 4
  1 neighbor lists, perpetual/occasional/extra = 1 0 0
  (1) pair python, perpetual
      attributes: half, newton on
      pair build: half/nsq/newton
      stencil: none
      bin: none
pair_write  2 2 2000001 r 0.1 ${r_cut_b} hooke22.table ENTRY1
pair_write  2 2 2000001 r 0.1 1.1 hooke22.table ENTRY1
Creating table file hooke22.table with DATE: 2021-11-26
pair_write  3 3 2000001 r 0.00001 1 hooke33.table ENTRY1
Creating table file hooke33.table with DATE: 2021-11-26
pair_write  1 2 2000001 r 0.1 ${r_cut_ab} hooke12.table ENTRY1
pair_write  1 2 2000001 r 0.1 1.1 hooke12.table ENTRY1
Creating table file hooke12.table with DATE: 2021-11-26
pair_write  1 3 2000001 r 0.00001 ${r_cut_3a} hooke13.table ENTRY1
pair_write  1 3 2000001 r 0.00001 1.1 hooke13.table ENTRY1
Creating table file hooke13.table with DATE: 2021-11-26
pair_write  2 3 2000001 r 0.00001 ${r_cut_3b} hooke23.table ENTRY1
pair_write  2 3 2000001 r 0.00001 1.1 hooke23.table ENTRY1
Creating table file hooke23.table with DATE: 2021-11-26
pair_style table linear 2000001
pair_coeff 1 1 hooke11.table ENTRY1
Reading pair table potential file hooke11.table with DATE: 2021-11-26
WARNING: 2 of 2000001 force values in table ENTRY1 are inconsistent with -dE/dr.
  Should only be flagged at inflection points (../pair_table.cpp:461)
pair_coeff 2 2 hooke22.table ENTRY1
Reading pair table potential file hooke22.table with DATE: 2021-11-26
WARNING: 2 of 2000001 force values in table ENTRY1 are inconsistent with -dE/dr.
  Should only be flagged at inflection points (../pair_table.cpp:461)
pair_coeff 3 3 hooke33.table ENTRY1
Reading pair table potential file hooke33.table with DATE: 2021-11-26
pair_coeff 1 2 hooke12.table ENTRY1
Reading pair table potential file hooke12.table with DATE: 2021-11-26
WARNING: 2 of 2000001 force values in table ENTRY1 are inconsistent with -dE/dr.
  Should only be flagged at inflection points (../pair_table.cpp:461)
pair_coeff 1 3 hooke13.table ENTRY1
Reading pair table potential file hooke13.table with DATE: 2021-11-26
pair_coeff 2 3 hooke23.table ENTRY1
Reading pair table potential file hooke23.table with DATE: 2021-11-26

## --------------------------------------------------------------------------

# group           myatom id 2
# velocity        myatom set 0.0 -50.0 0 units box
# variable        dimerdistancex equal x[2]-x[1]
# variable        dimerdistancey equal y[2]-y[1]
variable        dimerdistance equal sqrt((x[2]-x[1])^2+(y[2]-y[1])^2)

## --------------------------------------------------------------------------
# Setup output
thermo          1
thermo_style    custom atoms v_dimerdistance v_t step temp pe ke etotal ecouple econserve
thermo_modify   lost ignore norm no
# compute         10 all pressure thermo_temp
# compute	        Rke all erotate/sphere
# compute         sys_pe all pe
compute         c1 all ke/atom
compute         c2 all pe/atom
compute         3 all centroid/stress/atom NULL
compute         1 all property/local patom1 patom2 ptype1 ptype2
compute 	    2 all pair/local dist eng fx fy fz #p1 p2 p3

# dump   	        1 all custom 1 visualize.du id type x y z radius vx vy vz fx fy fz c_c1 c_c2
dump   	        1 all custom 1 visualize.du 								id type radius 								x y z 								vx vy vz 								fx fy fz 								c_c1 c_c2 								c_3[1] c_3[2] c_3[3] c_3[4] c_3[5] c_3[6]
dump 	        2 all local 1 dump.neigh index c_1[1] c_1[2] 										            c_2[1] c_2[2] 										            c_2[3] c_2[4] c_2[5]
## --------------------------------------------------------------------------
fix             11 all nve
run             ${rstep}
run             10000
Neighbor list info ...
  update every 1 steps, delay 10 steps, check yes
  max neighbors/atom: 2000, page size: 100000
  master list distance cutoff = 3.1
  ghost atom cutoff = 3.1
  3 neighbor lists, perpetual/occasional/extra = 1 2 0
  (1) pair table, perpetual
      attributes: half, newton on
      pair build: half/nsq/newton
      stencil: none
      bin: none
  (2) compute property/local, occasional, copy from (1)
      attributes: half, newton on
      pair build: copy
      stencil: none
      bin: none
  (3) compute pair/local, occasional, copy from (1)
      attributes: half, newton on
      pair build: copy
      stencil: none
      bin: none
Per MPI rank memory allocation (min/avg/max) = 7.188 | 8.128 | 9.950 Mbytes
Atoms v_dimerdistance v_t Step Temp PotEng KinEng TotEng Ecouple Econserve 
       2        0.375            0        0            0    0.1953125            0    0.1953125            0    0.1953125 
       2        0.375        1e-06        1 7.460388e-13    0.1953125 7.460388e-13    0.1953125            0    0.1953125 
       2        0.375        2e-06        2 2.9841552e-12    0.1953125 2.9841552e-12    0.1953125            0    0.1953125 
       2        0.375        3e-06        3 6.7143492e-12    0.1953125 6.7143492e-12    0.1953125            0    0.1953125 
       2        0.375        4e-06        4 1.1936621e-11    0.1953125 1.1936621e-11    0.1953125            0    0.1953125 
       2        0.375        5e-06        5 1.865097e-11    0.1953125 1.865097e-11    0.1953125            0    0.1953125 
       2        0.375        6e-06        6 2.6857397e-11    0.1953125 2.6857397e-11    0.1953125            0    0.1953125 
       2        0.375        7e-06        7 3.6555901e-11    0.1953125 3.6555901e-11    0.1953125            0    0.1953125 
       2        0.375        8e-06        8 4.7746483e-11    0.1953125 4.7746483e-11    0.1953125            0    0.1953125 
       2        0.375        9e-06        9 6.0429142e-11    0.1953125 6.0429142e-11    0.1953125            0    0.1953125 
       2        0.375        1e-05       10 7.460388e-11    0.1953125 7.460388e-11    0.1953125            0    0.1953125 
       2        0.375      1.1e-05       11 9.0270694e-11    0.1953125 9.0270694e-11    0.1953125            0    0.1953125 
       2        0.375      1.2e-05       12 1.0742959e-10    0.1953125 1.0742959e-10    0.1953125            0    0.1953125 
       2        0.375      1.3e-05       13 1.2608056e-10    0.1953125 1.2608056e-10    0.1953125            0    0.1953125 
       2        0.375      1.4e-05       14 1.462236e-10    0.1953125 1.462236e-10    0.1953125            0    0.1953125 
       2        0.375      1.5e-05       15 1.6785873e-10    0.1953125 1.6785873e-10    0.1953125            0    0.1953125 
       2        0.375      1.6e-05       16 1.9098593e-10    0.1953125 1.9098593e-10    0.1953125            0    0.1953125 
       2        0.375      1.7e-05       17 2.1560521e-10    0.1953125 2.1560521e-10    0.1953125            0    0.1953125 
       2        0.375      1.8e-05       18 2.4171657e-10    0.1953125 2.4171657e-10    0.1953125            0    0.1953125 
       2        0.375      1.9e-05       19 2.6932001e-10    0.1953125 2.6932001e-10    0.1953125            0    0.1953125 
       2        0.375        2e-05       20 2.9841552e-10    0.1953125 2.9841552e-10    0.1953125            0    0.1953125 
       2        0.375      2.1e-05       21 3.2900311e-10    0.1953125 3.2900311e-10    0.1953125            0    0.1953125 
       2        0.375      2.2e-05       22 3.6108278e-10    0.1953125 3.6108278e-10    0.1953125            0    0.1953125 
       2        0.375      2.3e-05       23 3.9465452e-10    0.1953125 3.9465452e-10    0.1953125            0    0.1953125 
       2        0.375      2.4e-05       24 4.2971835e-10    0.1953125 4.2971835e-10    0.1953125            0    0.1953125 
       2        0.375      2.5e-05       25 4.6627425e-10    0.1953125 4.6627425e-10    0.1953125            0    0.1953125 
       2        0.375      2.6e-05       26 5.0432223e-10    0.1953125 5.0432223e-10    0.1953125            0    0.1953125 
       2        0.375      2.7e-05       27 5.4386228e-10    0.1953125 5.4386228e-10    0.1953125            0    0.1953125 
       2        0.375      2.8e-05       28 5.8489442e-10    0.1953125 5.8489442e-10    0.1953125            0    0.1953125 
       2        0.375      2.9e-05       29 6.2741863e-10    0.1953125 6.2741863e-10    0.1953125            0    0.1953125 
       2        0.375        3e-05       30 6.7143492e-10    0.1953125 6.7143492e-10    0.1953125            0    0.1953125 
       2        0.375      3.1e-05       31 7.1694328e-10    0.1953125 7.1694328e-10    0.1953125            0    0.1953125 
       2        0.375      3.2e-05       32 7.6394373e-10    0.1953125 7.6394373e-10    0.1953125            0    0.1953125 
       2        0.375      3.3e-05       33 8.1243625e-10    0.1953125 8.1243625e-10    0.1953125            0    0.1953125 
       2        0.375      3.4e-05       34 8.6242085e-10    0.1953125 8.6242085e-10    0.1953125            0    0.1953125 
       2        0.375      3.5e-05       35 9.1389752e-10    0.1953125 9.1389752e-10    0.1953125            0    0.1953125 
       2        0.375      3.6e-05       36 9.6686628e-10    0.1953125 9.6686628e-10    0.1953125            0    0.1953125 
       2        0.375      3.7e-05       37 1.0213271e-09    0.1953125 1.0213271e-09    0.1953125            0    0.1953125 
       2        0.375      3.8e-05       38  1.07728e-09    0.1953125  1.07728e-09    0.1953125            0    0.1953125 
       2        0.375      3.9e-05       39 1.134725e-09    0.1953125 1.134725e-09    0.1953125            0    0.1953125 
       2        0.375        4e-05       40 1.1936621e-09    0.1953125 1.1936621e-09    0.1953125            0    0.1953125 
       2        0.375      4.1e-05       41 1.2540912e-09    0.1953125 1.2540912e-09    0.1953125            0    0.1953125 
       2        0.375      4.2e-05       42 1.3160124e-09    0.1953125 1.3160124e-09    0.1953125            0    0.1953125 
       2        0.375      4.3e-05       43 1.3794257e-09    0.1953125 1.3794257e-09    0.1953125            0    0.1953125 
       2        0.375      4.4e-05       44 1.4443311e-09    0.1953125 1.4443311e-09    0.1953125            0    0.1953125 
       2        0.375      4.5e-05       45 1.5107286e-09    0.1953125 1.5107286e-09    0.1953125            0    0.1953125 
       2        0.375      4.6e-05       46 1.5786181e-09    0.1953125 1.5786181e-09    0.1953125            0    0.1953125 
       2        0.375      4.7e-05       47 1.6479997e-09    0.1953125 1.6479997e-09    0.1953125            0    0.1953125 
       2        0.375      4.8e-05       48 1.7188734e-09    0.1953125 1.7188734e-09    0.1953125            0    0.1953125 
       2        0.375      4.9e-05       49 1.7912391e-09    0.1953125 1.7912391e-09    0.1953125            0    0.1953125 
       2        0.375        5e-05       50 1.865097e-09    0.1953125 1.865097e-09    0.1953125            0    0.1953125 
       2        0.375      5.1e-05       51 1.9404469e-09    0.1953125 1.9404469e-09    0.1953125            0    0.1953125 
       2        0.375      5.2e-05       52 2.0172889e-09    0.1953125 2.0172889e-09    0.1953125            0    0.1953125 
       2        0.375      5.3e-05       53 2.095623e-09    0.1953125 2.095623e-09    0.1953125            0    0.1953125 
       2        0.375      5.4e-05       54 2.1754491e-09    0.1953125 2.1754491e-09    0.1953125            0    0.1953125 
       2        0.375      5.5e-05       55 2.2567673e-09    0.1953125 2.2567673e-09    0.1953125            0    0.1953125 
       2        0.375      5.6e-05       56 2.3395777e-09    0.1953125 2.3395777e-09    0.1953125            0    0.1953125 
       2        0.375      5.7e-05       57  2.42388e-09    0.1953125  2.42388e-09    0.1953125            0    0.1953125 
       2        0.375      5.8e-05       58 2.5096745e-09    0.1953125 2.5096745e-09    0.1953125            0    0.1953125 
       2        0.375      5.9e-05       59 2.596961e-09    0.1953125 2.596961e-09    0.1953125            0    0.1953125 
       2        0.375        6e-05       60 2.6857397e-09    0.1953125 2.6857397e-09    0.1953125            0    0.1953125 
       2        0.375      6.1e-05       61 2.7760103e-09    0.1953125 2.7760103e-09    0.1953125            0    0.1953125 
       2        0.375      6.2e-05       62 2.8677731e-09    0.1953125 2.8677731e-09    0.1953125            0    0.1953125 
       2        0.375      6.3e-05       63 2.961028e-09    0.1953125 2.961028e-09    0.1953125            0    0.1953125 
       2        0.375      6.4e-05       64 3.0557749e-09    0.1953125 3.0557749e-09    0.1953125            0    0.1953125 
       2   0.37500001      6.5e-05       65 3.1520139e-09    0.1953125 3.1520139e-09    0.1953125            0    0.1953125 
       2   0.37500001      6.6e-05       66 3.249745e-09    0.1953125 3.249745e-09    0.1953125            0    0.1953125 
       2   0.37500001      6.7e-05       67 3.3489681e-09    0.1953125 3.3489681e-09    0.1953125            0    0.1953125 
       2   0.37500001      6.8e-05       68 3.4496834e-09    0.1953125 3.4496834e-09    0.1953125            0    0.1953125 
       2   0.37500001      6.9e-05       69 3.5518907e-09    0.1953125 3.5518907e-09    0.1953125            0    0.1953125 
       2   0.37500001        7e-05       70 3.6555901e-09    0.1953125 3.6555901e-09    0.1953125            0    0.1953125 
       2   0.37500001      7.1e-05       71 3.7607815e-09    0.1953125 3.7607815e-09    0.1953125            0    0.1953125 
       2   0.37500001      7.2e-05       72 3.8674651e-09    0.1953125 3.8674651e-09    0.1953125            0    0.1953125 
       2   0.37500001      7.3e-05       73 3.9756407e-09    0.1953125 3.9756407e-09    0.1953125            0    0.1953125 
       2   0.37500001      7.4e-05       74 4.0853084e-09    0.1953125 4.0853084e-09    0.1953125            0    0.1953125 
       2   0.37500001      7.5e-05       75 4.1964682e-09    0.1953125 4.1964682e-09    0.1953125            0    0.1953125 
       2   0.37500001      7.6e-05       76 4.3091201e-09    0.1953125 4.3091201e-09    0.1953125            0    0.1953125 
       2   0.37500001      7.7e-05       77 4.423264e-09    0.1953125 4.423264e-09    0.1953125            0    0.1953125 
       2   0.37500001      7.8e-05       78   4.5389e-09    0.1953125   4.5389e-09    0.1953125            0    0.1953125 
       2   0.37500001      7.9e-05       79 4.6560281e-09    0.1953125 4.6560281e-09    0.1953125            0    0.1953125 
       2   0.37500001        8e-05       80 4.7746483e-09    0.1953125 4.7746483e-09    0.1953125            0    0.1953125 
       2   0.37500001      8.1e-05       81 4.8947605e-09    0.1953125 4.8947605e-09    0.1953125            0    0.1953125 
       2   0.37500001      8.2e-05       82 5.0163648e-09   0.19531249 5.0163648e-09    0.1953125            0    0.1953125 
       2   0.37500001      8.3e-05       83 5.1394612e-09   0.19531249 5.1394612e-09    0.1953125            0    0.1953125 
       2   0.37500001      8.4e-05       84 5.2640497e-09   0.19531249 5.2640497e-09    0.1953125            0    0.1953125 
       2   0.37500001      8.5e-05       85 5.3901302e-09   0.19531249 5.3901302e-09    0.1953125            0    0.1953125 
       2   0.37500001      8.6e-05       86 5.5177029e-09   0.19531249 5.5177029e-09    0.1953125            0    0.1953125 
       2   0.37500001      8.7e-05       87 5.6467676e-09   0.19531249 5.6467676e-09    0.1953125            0    0.1953125 
       2   0.37500001      8.8e-05       88 5.7773244e-09   0.19531249 5.7773244e-09    0.1953125            0    0.1953125 
       2   0.37500001      8.9e-05       89 5.9093732e-09   0.19531249 5.9093732e-09    0.1953125            0    0.1953125 
       2   0.37500001        9e-05       90 6.0429142e-09   0.19531249 6.0429142e-09    0.1953125            0    0.1953125 
       2   0.37500001      9.1e-05       91 6.1779472e-09   0.19531249 6.1779472e-09    0.1953125            0    0.1953125 
       2   0.37500001      9.2e-05       92 6.3144723e-09   0.19531249 6.3144723e-09    0.1953125            0    0.1953125 
       2   0.37500001      9.3e-05       93 6.4524895e-09   0.19531249 6.4524895e-09    0.1953125            0    0.1953125 
       2   0.37500001      9.4e-05       94 6.5919987e-09   0.19531249 6.5919987e-09    0.1953125            0    0.1953125 
       2   0.37500001      9.5e-05       95 6.7330001e-09   0.19531249 6.7330001e-09    0.1953125            0    0.1953125 
       2   0.37500001      9.6e-05       96 6.8754935e-09   0.19531249 6.8754935e-09    0.1953125            0    0.1953125 
       2   0.37500001      9.7e-05       97 7.0194789e-09   0.19531249 7.0194789e-09    0.1953125            0    0.1953125 
       2   0.37500001      9.8e-05       98 7.1649565e-09   0.19531249 7.1649565e-09    0.1953125            0    0.1953125 
       2   0.37500001      9.9e-05       99 7.3119261e-09   0.19531249 7.3119261e-09    0.1953125            0    0.1953125 
       2   0.37500001       0.0001      100 7.4603879e-09   0.19531249 7.4603879e-09    0.1953125            0    0.1953125 
       2   0.37500001     0.000101      101 7.6103417e-09   0.19531249 7.6103417e-09    0.1953125            0    0.1953125 
       2   0.37500001     0.000102      102 7.7617875e-09   0.19531249 7.7617875e-09    0.1953125            0    0.1953125 
       2   0.37500001     0.000103      103 7.9147255e-09   0.19531249 7.9147255e-09    0.1953125            0    0.1953125 
       2   0.37500001     0.000104      104 8.0691555e-09   0.19531249 8.0691555e-09    0.1953125            0    0.1953125 
       2   0.37500001     0.000105      105 8.2250776e-09   0.19531249 8.2250776e-09    0.1953125            0    0.1953125 
       2   0.37500001     0.000106      106 8.3824918e-09   0.19531249 8.3824918e-09    0.1953125            0    0.1953125 
       2   0.37500001     0.000107      107 8.541398e-09   0.19531249 8.541398e-09    0.1953125            0    0.1953125 
       2   0.37500001     0.000108      108 8.7017964e-09   0.19531249 8.7017964e-09    0.1953125            0    0.1953125 
       2   0.37500001     0.000109      109 8.8636868e-09   0.19531249 8.8636868e-09    0.1953125            0    0.1953125 
       2   0.37500001      0.00011      110 9.0270693e-09   0.19531249 9.0270693e-09    0.1953125            0    0.1953125 
       2   0.37500001     0.000111      111 9.1919439e-09   0.19531249 9.1919439e-09    0.1953125            0    0.1953125 
       2   0.37500001     0.000112      112 9.3583105e-09   0.19531249 9.3583105e-09    0.1953125            0    0.1953125 
       2   0.37500002     0.000113      113 9.5261692e-09   0.19531249 9.5261692e-09    0.1953125            0    0.1953125 
       2   0.37500002     0.000114      114  9.69552e-09   0.19531249  9.69552e-09    0.1953125            0    0.1953125 
       2   0.37500002     0.000115      115 9.8663629e-09   0.19531249 9.8663629e-09    0.1953125            0    0.1953125 
       2   0.37500002     0.000116      116 1.0038698e-08   0.19531249 1.0038698e-08    0.1953125            0    0.1953125 
       2   0.37500002     0.000117      117 1.0212525e-08   0.19531249 1.0212525e-08    0.1953125            0    0.1953125 
       2   0.37500002     0.000118      118 1.0387844e-08   0.19531249 1.0387844e-08    0.1953125            0    0.1953125 
       2   0.37500002     0.000119      119 1.0564655e-08   0.19531249 1.0564655e-08    0.1953125            0    0.1953125 
       2   0.37500002      0.00012      120 1.0742958e-08   0.19531249 1.0742958e-08    0.1953125            0    0.1953125 
       2   0.37500002     0.000121      121 1.0922754e-08   0.19531249 1.0922754e-08    0.1953125            0    0.1953125 
       2   0.37500002     0.000122      122 1.1104041e-08   0.19531249 1.1104041e-08    0.1953125            0    0.1953125 
       2   0.37500002     0.000123      123 1.1286821e-08   0.19531249 1.1286821e-08    0.1953125            0    0.1953125 
       2   0.37500002     0.000124      124 1.1471092e-08   0.19531249 1.1471092e-08    0.1953125            0    0.1953125 
       2   0.37500002     0.000125      125 1.1656856e-08   0.19531249 1.1656856e-08    0.1953125            0    0.1953125 
       2   0.37500002     0.000126      126 1.1844112e-08   0.19531249 1.1844112e-08    0.1953125            0    0.1953125 
       2   0.37500002     0.000127      127 1.2032859e-08   0.19531249 1.2032859e-08    0.1953125            0    0.1953125 
       2   0.37500002     0.000128      128 1.2223099e-08   0.19531249 1.2223099e-08    0.1953125            0    0.1953125 
       2   0.37500002     0.000129      129 1.2414831e-08   0.19531249 1.2414831e-08    0.1953125            0    0.1953125 
       2   0.37500002      0.00013      130 1.2608055e-08   0.19531249 1.2608055e-08    0.1953125            0    0.1953125 
       2   0.37500002     0.000131      131 1.2802771e-08   0.19531249 1.2802771e-08    0.1953125            0    0.1953125 
       2   0.37500002     0.000132      132 1.299898e-08   0.19531249 1.299898e-08    0.1953125            0    0.1953125 
       2   0.37500002     0.000133      133 1.319668e-08   0.19531249 1.319668e-08    0.1953125            0    0.1953125 
       2   0.37500002     0.000134      134 1.3395872e-08   0.19531249 1.3395872e-08    0.1953125            0    0.1953125 
       2   0.37500002     0.000135      135 1.3596557e-08   0.19531249 1.3596557e-08    0.1953125            0    0.1953125 
       2   0.37500002     0.000136      136 1.3798733e-08   0.19531249 1.3798733e-08    0.1953125            0    0.1953125 
       2   0.37500002     0.000137      137 1.4002402e-08   0.19531249 1.4002402e-08    0.1953125            0    0.1953125 
       2   0.37500002     0.000138      138 1.4207562e-08   0.19531249 1.4207562e-08    0.1953125            0    0.1953125 
       2   0.37500002     0.000139      139 1.4414215e-08   0.19531249 1.4414215e-08    0.1953125            0    0.1953125 
       2   0.37500002      0.00014      140 1.462236e-08   0.19531249 1.462236e-08    0.1953125            0    0.1953125 
       2   0.37500002     0.000141      141 1.4831997e-08   0.19531249 1.4831997e-08    0.1953125            0    0.1953125 
       2   0.37500002     0.000142      142 1.5043126e-08   0.19531248 1.5043126e-08    0.1953125            0    0.1953125 
       2   0.37500002     0.000143      143 1.5255747e-08   0.19531248 1.5255747e-08    0.1953125            0    0.1953125 
       2   0.37500002     0.000144      144 1.546986e-08   0.19531248 1.546986e-08    0.1953125            0    0.1953125 
       2   0.37500003     0.000145      145 1.5685465e-08   0.19531248 1.5685465e-08    0.1953125            0    0.1953125 
       2   0.37500003     0.000146      146 1.5902563e-08   0.19531248 1.5902563e-08    0.1953125            0    0.1953125 
       2   0.37500003     0.000147      147 1.6121152e-08   0.19531248 1.6121152e-08    0.1953125            0    0.1953125 
       2   0.37500003     0.000148      148 1.6341233e-08   0.19531248 1.6341233e-08    0.1953125            0    0.1953125 
       2   0.37500003     0.000149      149 1.6562807e-08   0.19531248 1.6562807e-08    0.1953125            0    0.1953125 
       2   0.37500003      0.00015      150 1.6785872e-08   0.19531248 1.6785872e-08    0.1953125            0    0.1953125 
       2   0.37500003     0.000151      151 1.701043e-08   0.19531248 1.701043e-08    0.1953125            0    0.1953125 
       2   0.37500003     0.000152      152 1.723648e-08   0.19531248 1.723648e-08    0.1953125            0    0.1953125 
       2   0.37500003     0.000153      153 1.7464022e-08   0.19531248 1.7464022e-08    0.1953125            0    0.1953125 
       2   0.37500003     0.000154      154 1.7693056e-08   0.19531248 1.7693056e-08    0.1953125            0    0.1953125 
       2   0.37500003     0.000155      155 1.7923582e-08   0.19531248 1.7923582e-08    0.1953125            0    0.1953125 
       2   0.37500003     0.000156      156  1.81556e-08   0.19531248  1.81556e-08    0.1953125            0    0.1953125 
       2   0.37500003     0.000157      157 1.838911e-08   0.19531248 1.838911e-08    0.1953125            0    0.1953125 
       2   0.37500003     0.000158      158 1.8624112e-08   0.19531248 1.8624112e-08    0.1953125            0    0.1953125 
       2   0.37500003     0.000159      159 1.8860606e-08   0.19531248 1.8860606e-08    0.1953125            0    0.1953125 
       2   0.37500003      0.00016      160 1.9098593e-08   0.19531248 1.9098593e-08    0.1953125            0    0.1953125 
       2   0.37500003     0.000161      161 1.9338071e-08   0.19531248 1.9338071e-08    0.1953125            0    0.1953125 
       2   0.37500003     0.000162      162 1.9579042e-08   0.19531248 1.9579042e-08    0.1953125            0    0.1953125 
       2   0.37500003     0.000163      163 1.9821504e-08   0.19531248 1.9821504e-08    0.1953125            0    0.1953125 
       2   0.37500003     0.000164      164 2.0065459e-08   0.19531248 2.0065459e-08    0.1953125            0    0.1953125 
       2   0.37500003     0.000165      165 2.0310906e-08   0.19531248 2.0310906e-08    0.1953125            0    0.1953125 
       2   0.37500003     0.000166      166 2.0557844e-08   0.19531248 2.0557844e-08    0.1953125            0    0.1953125 
       2   0.37500003     0.000167      167 2.0806275e-08   0.19531248 2.0806275e-08    0.1953125            0    0.1953125 
       2   0.37500003     0.000168      168 2.1056198e-08   0.19531248 2.1056198e-08    0.1953125            0    0.1953125 
       2   0.37500003     0.000169      169 2.1307613e-08   0.19531248 2.1307613e-08    0.1953125            0    0.1953125 
       2   0.37500003      0.00017      170 2.156052e-08   0.19531248 2.156052e-08    0.1953125            0    0.1953125 
       2   0.37500003     0.000171      171 2.181492e-08   0.19531248 2.181492e-08    0.1953125            0    0.1953125 
       2   0.37500004     0.000172      172 2.2070811e-08   0.19531248 2.2070811e-08    0.1953125            0    0.1953125 
       2   0.37500004     0.000173      173 2.2328194e-08   0.19531248 2.2328194e-08    0.1953125            0    0.1953125 
       2   0.37500004     0.000174      174 2.258707e-08   0.19531248 2.258707e-08    0.1953125            0    0.1953125 
       2   0.37500004     0.000175      175 2.2847437e-08   0.19531248 2.2847437e-08    0.1953125            0    0.1953125 
       2   0.37500004     0.000176      176 2.3109297e-08   0.19531248 2.3109297e-08    0.1953125            0    0.1953125 
       2   0.37500004     0.000177      177 2.3372648e-08   0.19531248 2.3372648e-08    0.1953125            0    0.1953125 
       2   0.37500004     0.000178      178 2.3637492e-08   0.19531248 2.3637492e-08    0.1953125            0    0.1953125 
       2   0.37500004     0.000179      179 2.3903828e-08   0.19531248 2.3903828e-08    0.1953125            0    0.1953125 
       2   0.37500004      0.00018      180 2.4171656e-08   0.19531248 2.4171656e-08    0.1953125            0    0.1953125 
       2   0.37500004     0.000181      181 2.4440976e-08   0.19531248 2.4440976e-08    0.1953125            0    0.1953125 
       2   0.37500004     0.000182      182 2.4711788e-08   0.19531248 2.4711788e-08    0.1953125            0    0.1953125 
       2   0.37500004     0.000183      183 2.4984092e-08   0.19531248 2.4984092e-08    0.1953125            0    0.1953125 
       2   0.37500004     0.000184      184 2.5257888e-08   0.19531247 2.5257888e-08    0.1953125            0    0.1953125 
       2   0.37500004     0.000185      185 2.5533177e-08   0.19531247 2.5533177e-08    0.1953125            0    0.1953125 
       2   0.37500004     0.000186      186 2.5809957e-08   0.19531247 2.5809957e-08    0.1953125            0    0.1953125 
       2   0.37500004     0.000187      187 2.6088229e-08   0.19531247 2.6088229e-08    0.1953125            0    0.1953125 
       2   0.37500004     0.000188      188 2.6367994e-08   0.19531247 2.6367994e-08    0.1953125            0    0.1953125 
       2   0.37500004     0.000189      189 2.6649251e-08   0.19531247 2.6649251e-08    0.1953125            0    0.1953125 
       2   0.37500004      0.00019      190 2.6931999e-08   0.19531247 2.6931999e-08    0.1953125            0    0.1953125 
       2   0.37500004     0.000191      191 2.721624e-08   0.19531247 2.721624e-08    0.1953125            0    0.1953125 
       2   0.37500004     0.000192      192 2.7501973e-08   0.19531247 2.7501973e-08    0.1953125            0    0.1953125 
       2   0.37500004     0.000193      193 2.7789198e-08   0.19531247 2.7789198e-08    0.1953125            0    0.1953125 
       2   0.37500004     0.000194      194 2.8077915e-08   0.19531247 2.8077915e-08    0.1953125            0    0.1953125 
       2   0.37500005     0.000195      195 2.8368124e-08   0.19531247 2.8368124e-08    0.1953125            0    0.1953125 
       2   0.37500005     0.000196      196 2.8659825e-08   0.19531247 2.8659825e-08    0.1953125            0    0.1953125 
       2   0.37500005     0.000197      197 2.8953018e-08   0.19531247 2.8953018e-08    0.1953125            0    0.1953125 
       2   0.37500005     0.000198      198 2.9247703e-08   0.19531247 2.9247703e-08    0.1953125            0    0.1953125 
       2   0.37500005     0.000199      199 2.9543881e-08   0.19531247 2.9543881e-08    0.1953125            0    0.1953125 
       2   0.37500005       0.0002      200 2.984155e-08   0.19531247 2.984155e-08    0.1953125            0    0.1953125 
       2   0.37500005     0.000201      201 3.0140712e-08   0.19531247 3.0140712e-08    0.1953125            0    0.1953125 
       2   0.37500005     0.000202      202 3.0441365e-08   0.19531247 3.0441365e-08    0.1953125            0    0.1953125 
       2   0.37500005     0.000203      203 3.0743511e-08   0.19531247 3.0743511e-08    0.1953125            0    0.1953125 
       2   0.37500005     0.000204      204 3.1047149e-08   0.19531247 3.1047149e-08    0.1953125            0    0.1953125 
       2   0.37500005     0.000205      205 3.1352279e-08   0.19531247 3.1352279e-08    0.1953125            0    0.1953125 
       2   0.37500005     0.000206      206 3.1658901e-08   0.19531247 3.1658901e-08    0.1953125            0    0.1953125 
       2   0.37500005     0.000207      207 3.1967015e-08   0.19531247 3.1967015e-08    0.1953125            0    0.1953125 
       2   0.37500005     0.000208      208 3.2276621e-08   0.19531247 3.2276621e-08    0.1953125            0    0.1953125 
       2   0.37500005     0.000209      209 3.2587719e-08   0.19531247 3.2587719e-08    0.1953125            0    0.1953125 
       2   0.37500005      0.00021      210 3.2900309e-08   0.19531247 3.2900309e-08    0.1953125            0    0.1953125 
       2   0.37500005     0.000211      211 3.3214391e-08   0.19531247 3.3214391e-08    0.1953125            0    0.1953125 
       2   0.37500005     0.000212      212 3.3529966e-08   0.19531247 3.3529966e-08    0.1953125            0    0.1953125 
       2   0.37500005     0.000213      213 3.3847032e-08   0.19531247 3.3847032e-08    0.1953125            0    0.1953125 
       2   0.37500005     0.000214      214 3.4165591e-08   0.19531247 3.4165591e-08    0.1953125            0    0.1953125 
       2   0.37500006     0.000215      215 3.4485641e-08   0.19531247 3.4485641e-08    0.1953125            0    0.1953125 
       2   0.37500006     0.000216      216 3.4807184e-08   0.19531247 3.4807184e-08    0.1953125            0    0.1953125 
       2   0.37500006     0.000217      217 3.5130219e-08   0.19531246 3.5130219e-08    0.1953125            0    0.1953125 
       2   0.37500006     0.000218      218 3.5454746e-08   0.19531246 3.5454746e-08    0.1953125            0    0.1953125 
       2   0.37500006     0.000219      219 3.5780764e-08   0.19531246 3.5780764e-08    0.1953125            0    0.1953125 
       2   0.37500006      0.00022      220 3.6108275e-08   0.19531246 3.6108275e-08    0.1953125            0    0.1953125 
       2   0.37500006     0.000221      221 3.6437279e-08   0.19531246 3.6437279e-08    0.1953125            0    0.1953125 
       2   0.37500006     0.000222      222 3.6767774e-08   0.19531246 3.6767774e-08    0.1953125            0    0.1953125 
       2   0.37500006     0.000223      223 3.7099761e-08   0.19531246 3.7099761e-08    0.1953125            0    0.1953125 
       2   0.37500006     0.000224      224 3.743324e-08   0.19531246 3.743324e-08    0.1953125            0    0.1953125 
       2   0.37500006     0.000225      225 3.7768212e-08   0.19531246 3.7768212e-08    0.1953125            0    0.1953125 
       2   0.37500006     0.000226      226 3.8104675e-08   0.19531246 3.8104675e-08    0.1953125            0    0.1953125 
       2   0.37500006     0.000227      227 3.8442631e-08   0.19531246 3.8442631e-08    0.1953125            0    0.1953125 
       2   0.37500006     0.000228      228 3.8782078e-08   0.19531246 3.8782078e-08    0.1953125            0    0.1953125 
       2   0.37500006     0.000229      229 3.9123018e-08   0.19531246 3.9123018e-08    0.1953125            0    0.1953125 
       2   0.37500006      0.00023      230 3.946545e-08   0.19531246 3.946545e-08    0.1953125            0    0.1953125 
       2   0.37500006     0.000231      231 3.9809373e-08   0.19531246 3.9809373e-08    0.1953125            0    0.1953125 
       2   0.37500006     0.000232      232 4.0154789e-08   0.19531246 4.0154789e-08    0.1953125            0    0.1953125 
       2   0.37500006     0.000233      233 4.0501697e-08   0.19531246 4.0501697e-08    0.1953125            0    0.1953125 
       2   0.37500007     0.000234      234 4.0850097e-08   0.19531246 4.0850097e-08    0.1953125            0    0.1953125 
       2   0.37500007     0.000235      235 4.119999e-08   0.19531246 4.119999e-08    0.1953125            0    0.1953125 
       2   0.37500007     0.000236      236 4.1551374e-08   0.19531246 4.1551374e-08    0.1953125            0    0.1953125 
       2   0.37500007     0.000237      237 4.190425e-08   0.19531246 4.190425e-08    0.1953125            0    0.1953125 
       2   0.37500007     0.000238      238 4.2258618e-08   0.19531246 4.2258618e-08    0.1953125            0    0.1953125 
       2   0.37500007     0.000239      239 4.2614479e-08   0.19531246 4.2614479e-08    0.1953125            0    0.1953125 
       2   0.37500007      0.00024      240 4.2971831e-08   0.19531246 4.2971831e-08    0.1953125            0    0.1953125 
       2   0.37500007     0.000241      241 4.3330676e-08   0.19531246 4.3330676e-08    0.1953125            0    0.1953125 
       2   0.37500007     0.000242      242 4.3691013e-08   0.19531246 4.3691013e-08    0.1953125            0    0.1953125 
       2   0.37500007     0.000243      243 4.4052842e-08   0.19531246 4.4052842e-08    0.1953125            0    0.1953125 
       2   0.37500007     0.000244      244 4.4416162e-08   0.19531246 4.4416162e-08    0.1953125            0    0.1953125 
       2   0.37500007     0.000245      245 4.4780975e-08   0.19531246 4.4780975e-08    0.1953125            0    0.1953125 
       2   0.37500007     0.000246      246 4.514728e-08   0.19531245 4.514728e-08    0.1953125            0    0.1953125 
       2   0.37500007     0.000247      247 4.5515077e-08   0.19531245 4.5515077e-08    0.1953125            0    0.1953125 
       2   0.37500007     0.000248      248 4.5884367e-08   0.19531245 4.5884367e-08    0.1953125            0    0.1953125 
       2   0.37500007     0.000249      249 4.6255148e-08   0.19531245 4.6255148e-08    0.1953125            0    0.1953125 
       2   0.37500007      0.00025      250 4.6627421e-08   0.19531245 4.6627421e-08    0.1953125            0    0.1953125 
       2   0.37500008     0.000251      251 4.7001186e-08   0.19531245 4.7001186e-08    0.1953125            0    0.1953125 
       2   0.37500008     0.000252      252 4.7376444e-08   0.19531245 4.7376444e-08    0.1953125            0    0.1953125 
       2   0.37500008     0.000253      253 4.7753193e-08   0.19531245 4.7753193e-08    0.1953125            0    0.1953125 
       2   0.37500008     0.000254      254 4.8131435e-08   0.19531245 4.8131435e-08    0.1953125            0    0.1953125 
       2   0.37500008     0.000255      255 4.8511169e-08   0.19531245 4.8511169e-08    0.1953125            0    0.1953125 
       2   0.37500008     0.000256      256 4.8892394e-08   0.19531245 4.8892394e-08    0.1953125            0    0.1953125 
       2   0.37500008     0.000257      257 4.9275112e-08   0.19531245 4.9275112e-08    0.1953125            0    0.1953125 
       2   0.37500008     0.000258      258 4.9659322e-08   0.19531245 4.9659322e-08    0.1953125            0    0.1953125 
       2   0.37500008     0.000259      259 5.0045024e-08   0.19531245 5.0045024e-08    0.1953125            0    0.1953125 
       2   0.37500008      0.00026      260 5.0432218e-08   0.19531245 5.0432218e-08    0.1953125            0    0.1953125 
       2   0.37500008     0.000261      261 5.0820904e-08   0.19531245 5.0820904e-08    0.1953125            0    0.1953125 
       2   0.37500008     0.000262      262 5.1211083e-08   0.19531245 5.1211083e-08    0.1953125            0    0.1953125 
       2   0.37500008     0.000263      263 5.1602753e-08   0.19531245 5.1602753e-08    0.1953125            0    0.1953125 
       2   0.37500008     0.000264      264 5.1995915e-08   0.19531245 5.1995915e-08    0.1953125            0    0.1953125 
       2   0.37500008     0.000265      265 5.239057e-08   0.19531245 5.239057e-08    0.1953125            0    0.1953125 
       2   0.37500008     0.000266      266 5.2786716e-08   0.19531245 5.2786716e-08    0.1953125            0    0.1953125 
       2   0.37500009     0.000267      267 5.3184355e-08   0.19531245 5.3184355e-08    0.1953125            0    0.1953125 
       2   0.37500009     0.000268      268 5.3583486e-08   0.19531245 5.3583486e-08    0.1953125            0    0.1953125 
       2   0.37500009     0.000269      269 5.3984108e-08   0.19531245 5.3984108e-08    0.1953125            0    0.1953125 
       2   0.37500009      0.00027      270 5.4386223e-08   0.19531245 5.4386223e-08    0.1953125            0    0.1953125 
       2   0.37500009     0.000271      271 5.478983e-08   0.19531245 5.478983e-08    0.1953125            0    0.1953125 
       2   0.37500009     0.000272      272 5.5194929e-08   0.19531244 5.5194929e-08    0.1953125            0    0.1953125 
       2   0.37500009     0.000273      273 5.560152e-08   0.19531244 5.560152e-08    0.1953125            0    0.1953125 
       2   0.37500009     0.000274      274 5.6009603e-08   0.19531244 5.6009603e-08    0.1953125            0    0.1953125 
       2   0.37500009     0.000275      275 5.6419178e-08   0.19531244 5.6419178e-08    0.1953125            0    0.1953125 
       2   0.37500009     0.000276      276 5.6830246e-08   0.19531244 5.6830246e-08    0.1953125            0    0.1953125 
       2   0.37500009     0.000277      277 5.7242805e-08   0.19531244 5.7242805e-08    0.1953125            0    0.1953125 
       2   0.37500009     0.000278      278 5.7656857e-08   0.19531244 5.7656857e-08    0.1953125            0    0.1953125 
       2   0.37500009     0.000279      279  5.80724e-08   0.19531244  5.80724e-08    0.1953125            0    0.1953125 
       2   0.37500009      0.00028      280 5.8489436e-08   0.19531244 5.8489436e-08    0.1953125            0    0.1953125 
       2   0.37500009     0.000281      281 5.8907963e-08   0.19531244 5.8907963e-08    0.1953125            0    0.1953125 
       2   0.37500009     0.000282      282 5.9327983e-08   0.19531244 5.9327983e-08    0.1953125            0    0.1953125 
       2    0.3750001     0.000283      283 5.9749495e-08   0.19531244 5.9749495e-08    0.1953125            0    0.1953125 
       2    0.3750001     0.000284      284 6.0172499e-08   0.19531244 6.0172499e-08    0.1953125            0    0.1953125 
       2    0.3750001     0.000285      285 6.0596995e-08   0.19531244 6.0596995e-08    0.1953125            0    0.1953125 
       2    0.3750001     0.000286      286 6.1022983e-08   0.19531244 6.1022983e-08    0.1953125            0    0.1953125 
       2    0.3750001     0.000287      287 6.1450463e-08   0.19531244 6.1450463e-08    0.1953125            0    0.1953125 
       2    0.3750001     0.000288      288 6.1879435e-08   0.19531244 6.1879435e-08    0.1953125            0    0.1953125 
       2    0.3750001     0.000289      289  6.23099e-08   0.19531244  6.23099e-08    0.1953125            0    0.1953125 
       2    0.3750001      0.00029      290 6.2741856e-08   0.19531244 6.2741856e-08    0.1953125            0    0.1953125 
       2    0.3750001     0.000291      291 6.3175304e-08   0.19531244 6.3175304e-08    0.1953125            0    0.1953125 
       2    0.3750001     0.000292      292 6.3610245e-08   0.19531244 6.3610245e-08    0.1953125            0    0.1953125 
       2    0.3750001     0.000293      293 6.4046678e-08   0.19531244 6.4046678e-08    0.1953125            0    0.1953125 
       2    0.3750001     0.000294      294 6.4484602e-08   0.19531244 6.4484602e-08    0.1953125            0    0.1953125 
       2    0.3750001     0.000295      295 6.4924019e-08   0.19531244 6.4924019e-08    0.1953125            0    0.1953125 
       2    0.3750001     0.000296      296 6.5364928e-08   0.19531243 6.5364928e-08    0.1953125            0    0.1953125 
       2   0.37500011     0.000297      297 6.5807329e-08   0.19531243 6.5807329e-08    0.1953125            0    0.1953125 
       2   0.37500011     0.000298      298 6.6251222e-08   0.19531243 6.6251222e-08    0.1953125            0    0.1953125 
       2   0.37500011     0.000299      299 6.6696607e-08   0.19531243 6.6696607e-08    0.1953125            0    0.1953125 
       2   0.37500011       0.0003      300 6.7143484e-08   0.19531243 6.7143484e-08    0.1953125            0    0.1953125 
       2   0.37500011     0.000301      301 6.7591853e-08   0.19531243 6.7591853e-08    0.1953125            0    0.1953125 
       2   0.37500011     0.000302      302 6.8041714e-08   0.19531243 6.8041714e-08    0.1953125            0    0.1953125 
       2   0.37500011     0.000303      303 6.8493068e-08   0.19531243 6.8493068e-08    0.1953125            0    0.1953125 
       2   0.37500011     0.000304      304 6.8945913e-08   0.19531243 6.8945913e-08    0.1953125            0    0.1953125 
       2   0.37500011     0.000305      305 6.9400251e-08   0.19531243 6.9400251e-08    0.1953125            0    0.1953125 
       2   0.37500011     0.000306      306 6.985608e-08   0.19531243 6.985608e-08    0.1953125            0    0.1953125 
       2   0.37500011     0.000307      307 7.0313402e-08   0.19531243 7.0313402e-08    0.1953125            0    0.1953125 
       2   0.37500011     0.000308      308 7.0772216e-08   0.19531243 7.0772216e-08    0.1953125            0    0.1953125 
       2   0.37500011     0.000309      309 7.1232522e-08   0.19531243 7.1232522e-08    0.1953125            0    0.1953125 
       2   0.37500011      0.00031      310 7.1694319e-08   0.19531243 7.1694319e-08    0.1953125            0    0.1953125 
       2   0.37500012     0.000311      311 7.2157609e-08   0.19531243 7.2157609e-08    0.1953125            0    0.1953125 
       2   0.37500012     0.000312      312 7.2622392e-08   0.19531243 7.2622392e-08    0.1953125            0    0.1953125 
       2   0.37500012     0.000313      313 7.3088666e-08   0.19531243 7.3088666e-08    0.1953125            0    0.1953125 
       2   0.37500012     0.000314      314 7.3556432e-08   0.19531243 7.3556432e-08    0.1953125            0    0.1953125 
       2   0.37500012     0.000315      315 7.402569e-08   0.19531243 7.402569e-08    0.1953125            0    0.1953125 
       2   0.37500012     0.000316      316 7.4496441e-08   0.19531243 7.4496441e-08    0.1953125            0    0.1953125 
       2   0.37500012     0.000317      317 7.4968683e-08   0.19531243 7.4968683e-08    0.1953125            0    0.1953125 
       2   0.37500012     0.000318      318 7.5442417e-08   0.19531242 7.5442417e-08    0.1953125            0    0.1953125 
       2   0.37500012     0.000319      319 7.5917644e-08   0.19531242 7.5917644e-08    0.1953125            0    0.1953125 
       2   0.37500012      0.00032      320 7.6394363e-08   0.19531242 7.6394363e-08    0.1953125            0    0.1953125 
       2   0.37500012     0.000321      321 7.6872573e-08   0.19531242 7.6872573e-08    0.1953125            0    0.1953125 
       2   0.37500012     0.000322      322 7.7352276e-08   0.19531242 7.7352276e-08    0.1953125            0    0.1953125 
       2   0.37500012     0.000323      323 7.7833471e-08   0.19531242 7.7833471e-08    0.1953125            0    0.1953125 
       2   0.37500013     0.000324      324 7.8316158e-08   0.19531242 7.8316158e-08    0.1953125            0    0.1953125 
       2   0.37500013     0.000325      325 7.8800337e-08   0.19531242 7.8800337e-08    0.1953125            0    0.1953125 
       2   0.37500013     0.000326      326 7.9286008e-08   0.19531242 7.9286008e-08    0.1953125            0    0.1953125 
       2   0.37500013     0.000327      327 7.9773172e-08   0.19531242 7.9773172e-08    0.1953125            0    0.1953125 
       2   0.37500013     0.000328      328 8.0261827e-08   0.19531242 8.0261827e-08    0.1953125            0    0.1953125 
       2   0.37500013     0.000329      329 8.0751974e-08   0.19531242 8.0751974e-08    0.1953125            0    0.1953125 
       2   0.37500013      0.00033      330 8.1243614e-08   0.19531242 8.1243614e-08    0.1953125            0    0.1953125 
       2   0.37500013     0.000331      331 8.1736745e-08   0.19531242 8.1736745e-08    0.1953125            0    0.1953125 
       2   0.37500013     0.000332      332 8.2231369e-08   0.19531242 8.2231369e-08    0.1953125            0    0.1953125 
       2   0.37500013     0.000333      333 8.2727484e-08   0.19531242 8.2727484e-08    0.1953125            0    0.1953125 
       2   0.37500013     0.000334      334 8.3225092e-08   0.19531242 8.3225092e-08    0.1953125            0    0.1953125 
       2   0.37500013     0.000335      335 8.3724192e-08   0.19531242 8.3724192e-08    0.1953125            0    0.1953125 
       2   0.37500013     0.000336      336 8.4224784e-08   0.19531242 8.4224784e-08    0.1953125            0    0.1953125 
       2   0.37500014     0.000337      337 8.4726868e-08   0.19531242 8.4726868e-08    0.1953125            0    0.1953125 
       2   0.37500014     0.000338      338 8.5230444e-08   0.19531241 8.5230444e-08    0.1953125            0    0.1953125 
       2   0.37500014     0.000339      339 8.5735512e-08   0.19531241 8.5735512e-08    0.1953125            0    0.1953125 
       2   0.37500014      0.00034      340 8.6242072e-08   0.19531241 8.6242072e-08    0.1953125            0    0.1953125 
       2   0.37500014     0.000341      341 8.6750124e-08   0.19531241 8.6750124e-08    0.1953125            0    0.1953125 
       2   0.37500014     0.000342      342 8.7259669e-08   0.19531241 8.7259669e-08    0.1953125            0    0.1953125 
       2   0.37500014     0.000343      343 8.7770705e-08   0.19531241 8.7770705e-08    0.1953125            0    0.1953125 
       2   0.37500014     0.000344      344 8.8283234e-08   0.19531241 8.8283234e-08    0.1953125            0    0.1953125 
       2   0.37500014     0.000345      345 8.8797254e-08   0.19531241 8.8797254e-08    0.1953125            0    0.1953125 
       2   0.37500014     0.000346      346 8.9312767e-08   0.19531241 8.9312767e-08    0.1953125            0    0.1953125 
       2   0.37500014     0.000347      347 8.9829772e-08   0.19531241 8.9829772e-08    0.1953125            0    0.1953125 
       2   0.37500014     0.000348      348 9.0348268e-08   0.19531241 9.0348268e-08    0.1953125            0    0.1953125 
       2   0.37500015     0.000349      349 9.0868257e-08   0.19531241 9.0868257e-08    0.1953125            0    0.1953125 
       2   0.37500015      0.00035      350 9.1389738e-08   0.19531241 9.1389738e-08    0.1953125            0    0.1953125 
       2   0.37500015     0.000351      351 9.1912711e-08   0.19531241 9.1912711e-08    0.1953125            0    0.1953125 
       2   0.37500015     0.000352      352 9.2437176e-08   0.19531241 9.2437176e-08    0.1953125            0    0.1953125 
       2   0.37500015     0.000353      353 9.2963134e-08   0.19531241 9.2963134e-08    0.1953125            0    0.1953125 
       2   0.37500015     0.000354      354 9.3490583e-08   0.19531241 9.3490583e-08    0.1953125            0    0.1953125 
       2   0.37500015     0.000355      355 9.4019524e-08   0.19531241 9.4019524e-08    0.1953125            0    0.1953125 
       2   0.37500015     0.000356      356 9.4549958e-08   0.19531241 9.4549958e-08    0.1953125            0    0.1953125 
       2   0.37500015     0.000357      357 9.5081883e-08    0.1953124 9.5081883e-08    0.1953125            0    0.1953125 
       2   0.37500015     0.000358      358 9.5615301e-08    0.1953124 9.5615301e-08    0.1953125            0    0.1953125 
       2   0.37500015     0.000359      359 9.615021e-08    0.1953124 9.615021e-08    0.1953125            0    0.1953125 
       2   0.37500015      0.00036      360 9.6686612e-08    0.1953124 9.6686612e-08    0.1953125            0    0.1953125 
       2   0.37500016     0.000361      361 9.7224506e-08    0.1953124 9.7224506e-08    0.1953125            0    0.1953125 
       2   0.37500016     0.000362      362 9.7763892e-08    0.1953124 9.7763892e-08    0.1953125            0    0.1953125 
       2   0.37500016     0.000363      363 9.830477e-08    0.1953124 9.830477e-08    0.1953125            0    0.1953125 
       2   0.37500016     0.000364      364 9.884714e-08    0.1953124 9.884714e-08    0.1953125            0    0.1953125 
       2   0.37500016     0.000365      365 9.9391002e-08    0.1953124 9.9391002e-08    0.1953125            0    0.1953125 
       2   0.37500016     0.000366      366 9.9936356e-08    0.1953124 9.9936356e-08    0.1953125            0    0.1953125 
       2   0.37500016     0.000367      367 1.004832e-07    0.1953124 1.004832e-07    0.1953125            0    0.1953125 
       2   0.37500016     0.000368      368 1.0103154e-07    0.1953124 1.0103154e-07    0.1953125            0    0.1953125 
       2   0.37500016     0.000369      369 1.0158137e-07    0.1953124 1.0158137e-07    0.1953125            0    0.1953125 
       2   0.37500016      0.00037      370 1.0213269e-07    0.1953124 1.0213269e-07    0.1953125            0    0.1953125 
       2   0.37500016     0.000371      371 1.0268551e-07    0.1953124 1.0268551e-07    0.1953125            0    0.1953125 
       2   0.37500017     0.000372      372 1.0323981e-07    0.1953124 1.0323981e-07    0.1953125            0    0.1953125 
       2   0.37500017     0.000373      373 1.0379561e-07    0.1953124 1.0379561e-07    0.1953125            0    0.1953125 
       2   0.37500017     0.000374      374 1.043529e-07    0.1953124 1.043529e-07    0.1953125            0    0.1953125 
       2   0.37500017     0.000375      375 1.0491169e-07    0.1953124 1.0491169e-07    0.1953125            0    0.1953125 
       2   0.37500017     0.000376      376 1.0547196e-07   0.19531239 1.0547196e-07    0.1953125            0    0.1953125 
       2   0.37500017     0.000377      377 1.0603373e-07   0.19531239 1.0603373e-07    0.1953125            0    0.1953125 
       2   0.37500017     0.000378      378 1.0659699e-07   0.19531239 1.0659699e-07    0.1953125            0    0.1953125 
       2   0.37500017     0.000379      379 1.0716174e-07   0.19531239 1.0716174e-07    0.1953125            0    0.1953125 
       2   0.37500017      0.00038      380 1.0772798e-07   0.19531239 1.0772798e-07    0.1953125            0    0.1953125 
       2   0.37500017     0.000381      381 1.0829572e-07   0.19531239 1.0829572e-07    0.1953125            0    0.1953125 
       2   0.37500017     0.000382      382 1.0886495e-07   0.19531239 1.0886495e-07    0.1953125            0    0.1953125 
       2   0.37500018     0.000383      383 1.0943566e-07   0.19531239 1.0943566e-07    0.1953125            0    0.1953125 
       2   0.37500018     0.000384      384 1.1000788e-07   0.19531239 1.1000788e-07    0.1953125            0    0.1953125 
       2   0.37500018     0.000385      385 1.1058158e-07   0.19531239 1.1058158e-07    0.1953125            0    0.1953125 
       2   0.37500018     0.000386      386 1.1115678e-07   0.19531239 1.1115678e-07    0.1953125            0    0.1953125 
       2   0.37500018     0.000387      387 1.1173346e-07   0.19531239 1.1173346e-07    0.1953125            0    0.1953125 
       2   0.37500018     0.000388      388 1.1231164e-07   0.19531239 1.1231164e-07    0.1953125            0    0.1953125 
       2   0.37500018     0.000389      389 1.1289131e-07   0.19531239 1.1289131e-07    0.1953125            0    0.1953125 
       2   0.37500018      0.00039      390 1.1347248e-07   0.19531239 1.1347248e-07    0.1953125            0    0.1953125 
       2   0.37500018     0.000391      391 1.1405513e-07   0.19531239 1.1405513e-07    0.1953125            0    0.1953125 
       2   0.37500018     0.000392      392 1.1463928e-07   0.19531239 1.1463928e-07    0.1953125            0    0.1953125 
       2   0.37500018     0.000393      393 1.1522492e-07   0.19531238 1.1522492e-07    0.1953125            0    0.1953125 
       2   0.37500019     0.000394      394 1.1581206e-07   0.19531238 1.1581206e-07    0.1953125            0    0.1953125 
       2   0.37500019     0.000395      395 1.1640068e-07   0.19531238 1.1640068e-07    0.1953125            0    0.1953125 
       2   0.37500019     0.000396      396 1.169908e-07   0.19531238 1.169908e-07    0.1953125            0    0.1953125 
       2   0.37500019     0.000397      397 1.175824e-07   0.19531238 1.175824e-07    0.1953125            0    0.1953125 
       2   0.37500019     0.000398      398 1.1817551e-07   0.19531238 1.1817551e-07    0.1953125            0    0.1953125 
       2   0.37500019     0.000399      399 1.187701e-07   0.19531238 1.187701e-07    0.1953125            0    0.1953125 
       2   0.37500019       0.0004      400 1.1936618e-07   0.19531238 1.1936618e-07    0.1953125            0    0.1953125 
       2   0.37500019     0.000401      401 1.1996376e-07   0.19531238 1.1996376e-07    0.1953125            0    0.1953125 
       2   0.37500019     0.000402      402 1.2056283e-07   0.19531238 1.2056283e-07    0.1953125            0    0.1953125 
       2   0.37500019     0.000403      403 1.2116339e-07   0.19531238 1.2116339e-07    0.1953125            0    0.1953125 
       2   0.37500019     0.000404      404 1.2176544e-07   0.19531238 1.2176544e-07    0.1953125            0    0.1953125 
       2    0.3750002     0.000405      405 1.2236899e-07   0.19531238 1.2236899e-07    0.1953125            0    0.1953125 
       2    0.3750002     0.000406      406 1.2297403e-07   0.19531238 1.2297403e-07    0.1953125            0    0.1953125 
       2    0.3750002     0.000407      407 1.2358055e-07   0.19531238 1.2358055e-07    0.1953125            0    0.1953125 
       2    0.3750002     0.000408      408 1.2418858e-07   0.19531238 1.2418858e-07    0.1953125            0    0.1953125 
       2    0.3750002     0.000409      409 1.2479809e-07   0.19531238 1.2479809e-07    0.1953125            0    0.1953125 
       2    0.3750002      0.00041      410 1.2540909e-07   0.19531237 1.2540909e-07    0.1953125            0    0.1953125 
       2    0.3750002     0.000411      411 1.2602159e-07   0.19531237 1.2602159e-07    0.1953125            0    0.1953125 
       2    0.3750002     0.000412      412 1.2663558e-07   0.19531237 1.2663558e-07    0.1953125            0    0.1953125 
       2    0.3750002     0.000413      413 1.2725106e-07   0.19531237 1.2725106e-07    0.1953125            0    0.1953125 
       2    0.3750002     0.000414      414 1.2786804e-07   0.19531237 1.2786804e-07    0.1953125            0    0.1953125 
       2   0.37500021     0.000415      415 1.284865e-07   0.19531237 1.284865e-07    0.1953125            0    0.1953125 
       2   0.37500021     0.000416      416 1.2910646e-07   0.19531237 1.2910646e-07    0.1953125            0    0.1953125 
       2   0.37500021     0.000417      417 1.2972791e-07   0.19531237 1.2972791e-07    0.1953125            0    0.1953125 
       2   0.37500021     0.000418      418 1.3035085e-07   0.19531237 1.3035085e-07    0.1953125            0    0.1953125 
       2   0.37500021     0.000419      419 1.3097529e-07   0.19531237 1.3097529e-07    0.1953125            0    0.1953125 
       2   0.37500021      0.00042      420 1.3160121e-07   0.19531237 1.3160121e-07    0.1953125            0    0.1953125 
       2   0.37500021     0.000421      421 1.3222863e-07   0.19531237 1.3222863e-07    0.1953125            0    0.1953125 
       2   0.37500021     0.000422      422 1.3285754e-07   0.19531237 1.3285754e-07    0.1953125            0    0.1953125 
       2   0.37500021     0.000423      423 1.3348795e-07   0.19531237 1.3348795e-07    0.1953125            0    0.1953125 
       2   0.37500021     0.000424      424 1.3411984e-07   0.19531237 1.3411984e-07    0.1953125            0    0.1953125 
       2   0.37500022     0.000425      425 1.3475323e-07   0.19531237 1.3475323e-07    0.1953125            0    0.1953125 
       2   0.37500022     0.000426      426 1.3538811e-07   0.19531236 1.3538811e-07    0.1953125            0    0.1953125 
       2   0.37500022     0.000427      427 1.3602448e-07   0.19531236 1.3602448e-07    0.1953125            0    0.1953125 
       2   0.37500022     0.000428      428 1.3666234e-07   0.19531236 1.3666234e-07    0.1953125            0    0.1953125 
       2   0.37500022     0.000429      429 1.3730169e-07   0.19531236 1.3730169e-07    0.1953125            0    0.1953125 
       2   0.37500022      0.00043      430 1.3794254e-07   0.19531236 1.3794254e-07    0.1953125            0    0.1953125 
       2   0.37500022     0.000431      431 1.3858488e-07   0.19531236 1.3858488e-07    0.1953125            0    0.1953125 
       2   0.37500022     0.000432      432 1.3922871e-07   0.19531236 1.3922871e-07    0.1953125            0    0.1953125 
       2   0.37500022     0.000433      433 1.3987403e-07   0.19531236 1.3987403e-07    0.1953125            0    0.1953125 
       2   0.37500022     0.000434      434 1.4052085e-07   0.19531236 1.4052085e-07    0.1953125            0    0.1953125 
       2   0.37500023     0.000435      435 1.4116916e-07   0.19531236 1.4116916e-07    0.1953125            0    0.1953125 
       2   0.37500023     0.000436      436 1.4181896e-07   0.19531236 1.4181896e-07    0.1953125            0    0.1953125 
       2   0.37500023     0.000437      437 1.4247025e-07   0.19531236 1.4247025e-07    0.1953125            0    0.1953125 
       2   0.37500023     0.000438      438 1.4312303e-07   0.19531236 1.4312303e-07    0.1953125            0    0.1953125 
       2   0.37500023     0.000439      439 1.4377731e-07   0.19531236 1.4377731e-07    0.1953125            0    0.1953125 
       2   0.37500023      0.00044      440 1.4443308e-07   0.19531236 1.4443308e-07    0.1953125            0    0.1953125 
       2   0.37500023     0.000441      441 1.4509034e-07   0.19531235 1.4509034e-07    0.1953125            0    0.1953125 
       2   0.37500023     0.000442      442 1.4574909e-07   0.19531235 1.4574909e-07    0.1953125            0    0.1953125 
       2   0.37500023     0.000443      443 1.4640933e-07   0.19531235 1.4640933e-07    0.1953125            0    0.1953125 
       2   0.37500024     0.000444      444 1.4707107e-07   0.19531235 1.4707107e-07    0.1953125            0    0.1953125 
       2   0.37500024     0.000445      445 1.477343e-07   0.19531235 1.477343e-07    0.1953125            0    0.1953125 
       2   0.37500024     0.000446      446 1.4839902e-07   0.19531235 1.4839902e-07    0.1953125            0    0.1953125 
       2   0.37500024     0.000447      447 1.4906523e-07   0.19531235 1.4906523e-07    0.1953125            0    0.1953125 
       2   0.37500024     0.000448      448 1.4973293e-07   0.19531235 1.4973293e-07    0.1953125            0    0.1953125 
       2   0.37500024     0.000449      449 1.5040213e-07   0.19531235 1.5040213e-07    0.1953125            0    0.1953125 
       2   0.37500024      0.00045      450 1.5107282e-07   0.19531235 1.5107282e-07    0.1953125            0    0.1953125 
       2   0.37500024     0.000451      451  1.51745e-07   0.19531235  1.51745e-07    0.1953125            0    0.1953125 
       2   0.37500024     0.000452      452 1.5241867e-07   0.19531235 1.5241867e-07    0.1953125            0    0.1953125 
       2   0.37500024     0.000453      453 1.5309384e-07   0.19531235 1.5309384e-07    0.1953125            0    0.1953125 
       2   0.37500025     0.000454      454 1.5377049e-07   0.19531235 1.5377049e-07    0.1953125            0    0.1953125 
       2   0.37500025     0.000455      455 1.5444864e-07   0.19531235 1.5444864e-07    0.1953125            0    0.1953125 
       2   0.37500025     0.000456      456 1.5512828e-07   0.19531234 1.5512828e-07    0.1953125            0    0.1953125 
       2   0.37500025     0.000457      457 1.5580942e-07   0.19531234 1.5580942e-07    0.1953125            0    0.1953125 
       2   0.37500025     0.000458      458 1.5649204e-07   0.19531234 1.5649204e-07    0.1953125            0    0.1953125 
       2   0.37500025     0.000459      459 1.5717616e-07   0.19531234 1.5717616e-07    0.1953125            0    0.1953125 
       2   0.37500025      0.00046      460 1.5786177e-07   0.19531234 1.5786177e-07    0.1953125            0    0.1953125 
       2   0.37500025     0.000461      461 1.5854887e-07   0.19531234 1.5854887e-07    0.1953125            0    0.1953125 
       2   0.37500025     0.000462      462 1.5923746e-07   0.19531234 1.5923746e-07    0.1953125            0    0.1953125 
       2   0.37500026     0.000463      463 1.5992755e-07   0.19531234 1.5992755e-07    0.1953125            0    0.1953125 
       2   0.37500026     0.000464      464 1.6061912e-07   0.19531234 1.6061912e-07    0.1953125            0    0.1953125 
       2   0.37500026     0.000465      465 1.6131219e-07   0.19531234 1.6131219e-07    0.1953125            0    0.1953125 
       2   0.37500026     0.000466      466 1.6200676e-07   0.19531234 1.6200676e-07    0.1953125            0    0.1953125 
       2   0.37500026     0.000467      467 1.6270281e-07   0.19531234 1.6270281e-07    0.1953125            0    0.1953125 
       2   0.37500026     0.000468      468 1.6340036e-07   0.19531234 1.6340036e-07    0.1953125            0    0.1953125 
       2   0.37500026     0.000469      469 1.6409939e-07   0.19531234 1.6409939e-07    0.1953125            0    0.1953125 
       2   0.37500026      0.00047      470 1.6479992e-07   0.19531234 1.6479992e-07    0.1953125            0    0.1953125 
       2   0.37500026     0.000471      471 1.6550195e-07   0.19531233 1.6550195e-07    0.1953125            0    0.1953125 
       2   0.37500027     0.000472      472 1.6620546e-07   0.19531233 1.6620546e-07    0.1953125            0    0.1953125 
       2   0.37500027     0.000473      473 1.6691047e-07   0.19531233 1.6691047e-07    0.1953125            0    0.1953125 
       2   0.37500027     0.000474      474 1.6761696e-07   0.19531233 1.6761696e-07    0.1953125            0    0.1953125 
       2   0.37500027     0.000475      475 1.6832495e-07   0.19531233 1.6832495e-07    0.1953125            0    0.1953125 
       2   0.37500027     0.000476      476 1.6903444e-07   0.19531233 1.6903444e-07    0.1953125            0    0.1953125 
       2   0.37500027     0.000477      477 1.6974541e-07   0.19531233 1.6974541e-07    0.1953125            0    0.1953125 
       2   0.37500027     0.000478      478 1.7045788e-07   0.19531233 1.7045788e-07    0.1953125            0    0.1953125 
       2   0.37500027     0.000479      479 1.7117184e-07   0.19531233 1.7117184e-07    0.1953125            0    0.1953125 
       2   0.37500028      0.00048      480 1.7188729e-07   0.19531233 1.7188729e-07    0.1953125            0    0.1953125 
       2   0.37500028     0.000481      481 1.7260423e-07   0.19531233 1.7260423e-07    0.1953125            0    0.1953125 
       2   0.37500028     0.000482      482 1.7332267e-07   0.19531233 1.7332267e-07    0.1953125            0    0.1953125 
       2   0.37500028     0.000483      483 1.7404259e-07   0.19531233 1.7404259e-07    0.1953125            0    0.1953125 
       2   0.37500028     0.000484      484 1.7476401e-07   0.19531233 1.7476401e-07    0.1953125            0    0.1953125 
       2   0.37500028     0.000485      485 1.7548692e-07   0.19531232 1.7548692e-07    0.1953125            0    0.1953125 
       2   0.37500028     0.000486      486 1.7621133e-07   0.19531232 1.7621133e-07    0.1953125            0    0.1953125 
       2   0.37500028     0.000487      487 1.7693722e-07   0.19531232 1.7693722e-07    0.1953125            0    0.1953125 
       2   0.37500028     0.000488      488 1.7766461e-07   0.19531232 1.7766461e-07    0.1953125            0    0.1953125 
       2   0.37500029     0.000489      489 1.7839349e-07   0.19531232 1.7839349e-07    0.1953125            0    0.1953125 
       2   0.37500029      0.00049      490 1.7912386e-07   0.19531232 1.7912386e-07    0.1953125            0    0.1953125 
       2   0.37500029     0.000491      491 1.7985572e-07   0.19531232 1.7985572e-07    0.1953125            0    0.1953125 
       2   0.37500029     0.000492      492 1.8058908e-07   0.19531232 1.8058908e-07    0.1953125            0    0.1953125 
       2   0.37500029     0.000493      493 1.8132393e-07   0.19531232 1.8132393e-07    0.1953125            0    0.1953125 
       2   0.37500029     0.000494      494 1.8206027e-07   0.19531232 1.8206027e-07    0.1953125            0    0.1953125 
       2   0.37500029     0.000495      495 1.827981e-07   0.19531232 1.827981e-07    0.1953125            0    0.1953125 
       2   0.37500029     0.000496      496 1.8353742e-07   0.19531232 1.8353742e-07    0.1953125            0    0.1953125 
       2   0.37500029     0.000497      497 1.8427824e-07   0.19531232 1.8427824e-07    0.1953125            0    0.1953125 
       2    0.3750003     0.000498      498 1.8502055e-07   0.19531231 1.8502055e-07    0.1953125            0    0.1953125 
       2    0.3750003     0.000499      499 1.8576435e-07   0.19531231 1.8576435e-07    0.1953125            0    0.1953125 
       2    0.3750003       0.0005      500 1.8650964e-07   0.19531231 1.8650964e-07    0.1953125            0    0.1953125 
       2    0.3750003     0.000501      501 1.8725642e-07   0.19531231 1.8725642e-07    0.1953125            0    0.1953125 
       2    0.3750003     0.000502      502 1.880047e-07   0.19531231 1.880047e-07    0.1953125            0    0.1953125 
       2    0.3750003     0.000503      503 1.8875447e-07   0.19531231 1.8875447e-07    0.1953125            0    0.1953125 
       2    0.3750003     0.000504      504 1.8950573e-07   0.19531231 1.8950573e-07    0.1953125            0    0.1953125 
       2    0.3750003     0.000505      505 1.9025848e-07   0.19531231 1.9025848e-07    0.1953125            0    0.1953125 
       2   0.37500031     0.000506      506 1.9101273e-07   0.19531231 1.9101273e-07    0.1953125            0    0.1953125 
       2   0.37500031     0.000507      507 1.9176846e-07   0.19531231 1.9176846e-07    0.1953125            0    0.1953125 
       2   0.37500031     0.000508      508 1.9252569e-07   0.19531231 1.9252569e-07    0.1953125            0    0.1953125 
       2   0.37500031     0.000509      509 1.9328441e-07   0.19531231 1.9328441e-07    0.1953125            0    0.1953125 
       2   0.37500031      0.00051      510 1.9404463e-07   0.19531231 1.9404463e-07    0.1953125            0    0.1953125 
       2   0.37500031     0.000511      511 1.9480633e-07   0.19531231 1.9480633e-07    0.1953125            0    0.1953125 
       2   0.37500031     0.000512      512 1.9556953e-07    0.1953123 1.9556953e-07    0.1953125            0    0.1953125 
       2   0.37500031     0.000513      513 1.9633422e-07    0.1953123 1.9633422e-07    0.1953125            0    0.1953125 
       2   0.37500032     0.000514      514 1.971004e-07    0.1953123 1.971004e-07    0.1953125            0    0.1953125 
       2   0.37500032     0.000515      515 1.9786807e-07    0.1953123 1.9786807e-07    0.1953125            0    0.1953125 
       2   0.37500032     0.000516      516 1.9863724e-07    0.1953123 1.9863724e-07    0.1953125            0    0.1953125 
       2   0.37500032     0.000517      517 1.994079e-07    0.1953123 1.994079e-07    0.1953125            0    0.1953125 
       2   0.37500032     0.000518      518 2.0018005e-07    0.1953123 2.0018005e-07    0.1953125            0    0.1953125 
       2   0.37500032     0.000519      519 2.0095369e-07    0.1953123 2.0095369e-07    0.1953125            0    0.1953125 
       2   0.37500032      0.00052      520 2.0172882e-07    0.1953123 2.0172882e-07    0.1953125            0    0.1953125 
       2   0.37500032     0.000521      521 2.0250545e-07    0.1953123 2.0250545e-07    0.1953125            0    0.1953125 
       2   0.37500033     0.000522      522 2.0328356e-07    0.1953123 2.0328356e-07    0.1953125            0    0.1953125 
       2   0.37500033     0.000523      523 2.0406317e-07    0.1953123 2.0406317e-07    0.1953125            0    0.1953125 
       2   0.37500033     0.000524      524 2.0484428e-07    0.1953123 2.0484428e-07    0.1953125            0    0.1953125 
       2   0.37500033     0.000525      525 2.0562687e-07   0.19531229 2.0562687e-07    0.1953125            0    0.1953125 
       2   0.37500033     0.000526      526 2.0641096e-07   0.19531229 2.0641096e-07    0.1953125            0    0.1953125 
       2   0.37500033     0.000527      527 2.0719654e-07   0.19531229 2.0719654e-07    0.1953125            0    0.1953125 
       2   0.37500033     0.000528      528 2.0798361e-07   0.19531229 2.0798361e-07    0.1953125            0    0.1953125 
       2   0.37500033     0.000529      529 2.0877217e-07   0.19531229 2.0877217e-07    0.1953125            0    0.1953125 
       2   0.37500034      0.00053      530 2.0956222e-07   0.19531229 2.0956222e-07    0.1953125            0    0.1953125 
       2   0.37500034     0.000531      531 2.1035377e-07   0.19531229 2.1035377e-07    0.1953125            0    0.1953125 
       2   0.37500034     0.000532      532 2.1114681e-07   0.19531229 2.1114681e-07    0.1953125            0    0.1953125 
       2   0.37500034     0.000533      533 2.1194134e-07   0.19531229 2.1194134e-07    0.1953125            0    0.1953125 
       2   0.37500034     0.000534      534 2.1273736e-07   0.19531229 2.1273736e-07    0.1953125            0    0.1953125 
       2   0.37500034     0.000535      535 2.1353488e-07   0.19531229 2.1353488e-07    0.1953125            0    0.1953125 
       2   0.37500034     0.000536      536 2.1433388e-07   0.19531229 2.1433388e-07    0.1953125            0    0.1953125 
       2   0.37500034     0.000537      537 2.1513438e-07   0.19531228 2.1513438e-07    0.1953125            0    0.1953125 
       2   0.37500035     0.000538      538 2.1593637e-07   0.19531228 2.1593637e-07    0.1953125            0    0.1953125 
       2   0.37500035     0.000539      539 2.1673986e-07   0.19531228 2.1673986e-07    0.1953125            0    0.1953125 
       2   0.37500035      0.00054      540 2.1754483e-07   0.19531228 2.1754483e-07    0.1953125            0    0.1953125 
       2   0.37500035     0.000541      541 2.183513e-07   0.19531228 2.183513e-07    0.1953125            0    0.1953125 
       2   0.37500035     0.000542      542 2.1915926e-07   0.19531228 2.1915926e-07    0.1953125            0    0.1953125 
       2   0.37500035     0.000543      543 2.1996871e-07   0.19531228 2.1996871e-07    0.1953125            0    0.1953125 
       2   0.37500035     0.000544      544 2.2077965e-07   0.19531228 2.2077965e-07    0.1953125            0    0.1953125 
       2   0.37500035     0.000545      545 2.2159209e-07   0.19531228 2.2159209e-07    0.1953125            0    0.1953125 
       2   0.37500036     0.000546      546 2.2240602e-07   0.19531228 2.2240602e-07    0.1953125            0    0.1953125 
       2   0.37500036     0.000547      547 2.2322144e-07   0.19531228 2.2322144e-07    0.1953125            0    0.1953125 
       2   0.37500036     0.000548      548 2.2403835e-07   0.19531228 2.2403835e-07    0.1953125            0    0.1953125 
       2   0.37500036     0.000549      549 2.2485675e-07   0.19531228 2.2485675e-07    0.1953125            0    0.1953125 
       2   0.37500036      0.00055      550 2.2567665e-07   0.19531227 2.2567665e-07    0.1953125            0    0.1953125 
       2   0.37500036     0.000551      551 2.2649804e-07   0.19531227 2.2649804e-07    0.1953125            0    0.1953125 
       2   0.37500036     0.000552      552 2.2732092e-07   0.19531227 2.2732092e-07    0.1953125            0    0.1953125 
       2   0.37500037     0.000553      553 2.2814529e-07   0.19531227 2.2814529e-07    0.1953125            0    0.1953125 
       2   0.37500037     0.000554      554 2.2897115e-07   0.19531227 2.2897115e-07    0.1953125            0    0.1953125 
       2   0.37500037     0.000555      555 2.2979851e-07   0.19531227 2.2979851e-07    0.1953125            0    0.1953125 
       2   0.37500037     0.000556      556 2.3062736e-07   0.19531227 2.3062736e-07    0.1953125            0    0.1953125 
       2   0.37500037     0.000557      557 2.314577e-07   0.19531227 2.314577e-07    0.1953125            0    0.1953125 
       2   0.37500037     0.000558      558 2.3228953e-07   0.19531227 2.3228953e-07    0.1953125            0    0.1953125 
       2   0.37500037     0.000559      559 2.3312286e-07   0.19531227 2.3312286e-07    0.1953125            0    0.1953125 
       2   0.37500037      0.00056      560 2.3395767e-07   0.19531227 2.3395767e-07    0.1953125            0    0.1953125 
       2   0.37500038     0.000561      561 2.3479398e-07   0.19531227 2.3479398e-07    0.1953125            0    0.1953125 
       2   0.37500038     0.000562      562 2.3563178e-07   0.19531226 2.3563178e-07    0.1953125            0    0.1953125 
       2   0.37500038     0.000563      563 2.3647108e-07   0.19531226 2.3647108e-07    0.1953125            0    0.1953125 
       2   0.37500038     0.000564      564 2.3731186e-07   0.19531226 2.3731186e-07    0.1953125            0    0.1953125 
       2   0.37500038     0.000565      565 2.3815414e-07   0.19531226 2.3815414e-07    0.1953125            0    0.1953125 
       2   0.37500038     0.000566      566 2.3899791e-07   0.19531226 2.3899791e-07    0.1953125            0    0.1953125 
[...]
       2   0.37511583     0.009851     9851 7.2388302e-05   0.19524011 7.2388302e-05    0.1953125            0    0.1953125 
       2   0.37511586     0.009852     9852 7.2402998e-05    0.1952401 7.2402998e-05    0.1953125            0    0.1953125 
       2   0.37511588     0.009853     9853 7.2417695e-05   0.19524008 7.2417695e-05    0.1953125            0    0.1953125 
       2    0.3751159     0.009854     9854 7.2432393e-05   0.19524007 7.2432393e-05    0.1953125            0    0.1953125 
       2   0.37511593     0.009855     9855 7.2447093e-05   0.19524005 7.2447093e-05    0.1953125            0    0.1953125 
       2   0.37511595     0.009856     9856 7.2461795e-05   0.19524004 7.2461795e-05    0.1953125            0    0.1953125 
       2   0.37511597     0.009857     9857 7.2476498e-05   0.19524002 7.2476498e-05    0.1953125            0    0.1953125 
       2     0.375116     0.009858     9858 7.2491202e-05   0.19524001 7.2491202e-05    0.1953125            0    0.1953125 
       2   0.37511602     0.009859     9859 7.2505908e-05   0.19523999 7.2505908e-05    0.1953125            0    0.1953125 
       2   0.37511604      0.00986     9860 7.2520616e-05   0.19523998 7.2520616e-05    0.1953125            0    0.1953125 
       2   0.37511607     0.009861     9861 7.2535325e-05   0.19523996 7.2535325e-05    0.1953125            0    0.1953125 
       2   0.37511609     0.009862     9862 7.2550035e-05   0.19523995 7.2550035e-05    0.1953125            0    0.1953125 
       2   0.37511611     0.009863     9863 7.2564747e-05   0.19523994 7.2564747e-05    0.1953125            0    0.1953125 
       2   0.37511614     0.009864     9864 7.2579461e-05   0.19523992 7.2579461e-05    0.1953125            0    0.1953125 
       2   0.37511616     0.009865     9865 7.2594176e-05   0.19523991 7.2594176e-05    0.1953125            0    0.1953125 
       2   0.37511619     0.009866     9866 7.2608892e-05   0.19523989 7.2608892e-05    0.1953125            0    0.1953125 
       2   0.37511621     0.009867     9867 7.262361e-05   0.19523988 7.262361e-05    0.1953125            0    0.1953125 
       2   0.37511623     0.009868     9868 7.2638329e-05   0.19523986 7.2638329e-05    0.1953125            0    0.1953125 
       2   0.37511626     0.009869     9869 7.265305e-05   0.19523985 7.265305e-05    0.1953125            0    0.1953125 
       2   0.37511628      0.00987     9870 7.2667773e-05   0.19523983 7.2667773e-05    0.1953125            0    0.1953125 
       2    0.3751163     0.009871     9871 7.2682497e-05   0.19523982 7.2682497e-05    0.1953125            0    0.1953125 
       2   0.37511633     0.009872     9872 7.2697222e-05    0.1952398 7.2697222e-05    0.1953125            0    0.1953125 
       2   0.37511635     0.009873     9873 7.2711949e-05   0.19523979 7.2711949e-05    0.1953125            0    0.1953125 
       2   0.37511637     0.009874     9874 7.2726677e-05   0.19523977 7.2726677e-05    0.1953125            0    0.1953125 
       2    0.3751164     0.009875     9875 7.2741407e-05   0.19523976 7.2741407e-05    0.1953125            0    0.1953125 
       2   0.37511642     0.009876     9876 7.2756138e-05   0.19523974 7.2756138e-05    0.1953125            0    0.1953125 
       2   0.37511644     0.009877     9877 7.2770871e-05   0.19523973 7.2770871e-05    0.1953125            0    0.1953125 
       2   0.37511647     0.009878     9878 7.2785606e-05   0.19523971 7.2785606e-05    0.1953125            0    0.1953125 
       2   0.37511649     0.009879     9879 7.2800341e-05    0.1952397 7.2800341e-05    0.1953125            0    0.1953125 
       2   0.37511651      0.00988     9880 7.2815079e-05   0.19523968 7.2815079e-05    0.1953125            0    0.1953125 
       2   0.37511654     0.009881     9881 7.2829818e-05   0.19523967 7.2829818e-05    0.1953125            0    0.1953125 
       2   0.37511656     0.009882     9882 7.2844558e-05   0.19523966 7.2844558e-05    0.1953125            0    0.1953125 
       2   0.37511659     0.009883     9883  7.28593e-05   0.19523964  7.28593e-05    0.1953125            0    0.1953125 
       2   0.37511661     0.009884     9884 7.2874043e-05   0.19523963 7.2874043e-05    0.1953125            0    0.1953125 
       2   0.37511663     0.009885     9885 7.2888788e-05   0.19523961 7.2888788e-05    0.1953125            0    0.1953125 
       2   0.37511666     0.009886     9886 7.2903534e-05    0.1952396 7.2903534e-05    0.1953125            0    0.1953125 
       2   0.37511668     0.009887     9887 7.2918282e-05   0.19523958 7.2918282e-05    0.1953125            0    0.1953125 
       2    0.3751167     0.009888     9888 7.2933031e-05   0.19523957 7.2933031e-05    0.1953125            0    0.1953125 
       2   0.37511673     0.009889     9889 7.2947782e-05   0.19523955 7.2947782e-05    0.1953125            0    0.1953125 
       2   0.37511675      0.00989     9890 7.2962534e-05   0.19523954 7.2962534e-05    0.1953125            0    0.1953125 
       2   0.37511677     0.009891     9891 7.2977288e-05   0.19523952 7.2977288e-05    0.1953125            0    0.1953125 
       2    0.3751168     0.009892     9892 7.2992043e-05   0.19523951 7.2992043e-05    0.1953125            0    0.1953125 
       2   0.37511682     0.009893     9893  7.30068e-05   0.19523949  7.30068e-05    0.1953125            0    0.1953125 
       2   0.37511685     0.009894     9894 7.3021558e-05   0.19523948 7.3021558e-05    0.1953125            0    0.1953125 
       2   0.37511687     0.009895     9895 7.3036317e-05   0.19523946 7.3036317e-05    0.1953125            0    0.1953125 
       2   0.37511689     0.009896     9896 7.3051079e-05   0.19523945 7.3051079e-05    0.1953125            0    0.1953125 
       2   0.37511692     0.009897     9897 7.3065841e-05   0.19523943 7.3065841e-05    0.1953125            0    0.1953125 
       2   0.37511694     0.009898     9898 7.3080605e-05   0.19523942 7.3080605e-05    0.1953125            0    0.1953125 
       2   0.37511696     0.009899     9899 7.3095371e-05    0.1952394 7.3095371e-05    0.1953125            0    0.1953125 
       2   0.37511699       0.0099     9900 7.3110138e-05   0.19523939 7.3110138e-05    0.1953125            0    0.1953125 
       2   0.37511701     0.009901     9901 7.3124907e-05   0.19523938 7.3124907e-05    0.1953125            0    0.1953125 
       2   0.37511703     0.009902     9902 7.3139677e-05   0.19523936 7.3139677e-05    0.1953125            0    0.1953125 
       2   0.37511706     0.009903     9903 7.3154449e-05   0.19523935 7.3154449e-05    0.1953125            0    0.1953125 
       2   0.37511708     0.009904     9904 7.3169222e-05   0.19523933 7.3169222e-05    0.1953125            0    0.1953125 
       2   0.37511711     0.009905     9905 7.3183996e-05   0.19523932 7.3183996e-05    0.1953125            0    0.1953125 
       2   0.37511713     0.009906     9906 7.3198772e-05    0.1952393 7.3198772e-05    0.1953125            0    0.1953125 
       2   0.37511715     0.009907     9907 7.321355e-05   0.19523929 7.321355e-05    0.1953125            0    0.1953125 
       2   0.37511718     0.009908     9908 7.3228329e-05   0.19523927 7.3228329e-05    0.1953125            0    0.1953125 
       2    0.3751172     0.009909     9909 7.324311e-05   0.19523926 7.324311e-05    0.1953125            0    0.1953125 
       2   0.37511722      0.00991     9910 7.3257892e-05   0.19523924 7.3257892e-05    0.1953125            0    0.1953125 
       2   0.37511725     0.009911     9911 7.3272675e-05   0.19523923 7.3272675e-05    0.1953125            0    0.1953125 
       2   0.37511727     0.009912     9912 7.328746e-05   0.19523921 7.328746e-05    0.1953125            0    0.1953125 
       2   0.37511729     0.009913     9913 7.3302247e-05    0.1952392 7.3302247e-05    0.1953125            0    0.1953125 
       2   0.37511732     0.009914     9914 7.3317035e-05   0.19523918 7.3317035e-05    0.1953125            0    0.1953125 
       2   0.37511734     0.009915     9915 7.3331824e-05   0.19523917 7.3331824e-05    0.1953125            0    0.1953125 
       2   0.37511737     0.009916     9916 7.3346615e-05   0.19523915 7.3346615e-05    0.1953125            0    0.1953125 
       2   0.37511739     0.009917     9917 7.3361408e-05   0.19523914 7.3361408e-05    0.1953125            0    0.1953125 
       2   0.37511741     0.009918     9918 7.3376202e-05   0.19523912 7.3376202e-05    0.1953125            0    0.1953125 
       2   0.37511744     0.009919     9919 7.3390997e-05   0.19523911 7.3390997e-05    0.1953125            0    0.1953125 
       2   0.37511746      0.00992     9920 7.3405794e-05   0.19523909 7.3405794e-05    0.1953125            0    0.1953125 
       2   0.37511748     0.009921     9921 7.3420593e-05   0.19523908 7.3420593e-05    0.1953125            0    0.1953125 
       2   0.37511751     0.009922     9922 7.3435392e-05   0.19523906 7.3435392e-05    0.1953125            0    0.1953125 
       2   0.37511753     0.009923     9923 7.3450194e-05   0.19523905 7.3450194e-05    0.1953125            0    0.1953125 
       2   0.37511756     0.009924     9924 7.3464997e-05   0.19523904 7.3464997e-05    0.1953125            0    0.1953125 
       2   0.37511758     0.009925     9925 7.3479801e-05   0.19523902 7.3479801e-05    0.1953125            0    0.1953125 
       2    0.3751176     0.009926     9926 7.3494607e-05   0.19523901 7.3494607e-05    0.1953125            0    0.1953125 
       2   0.37511763     0.009927     9927 7.3509415e-05   0.19523899 7.3509415e-05    0.1953125            0    0.1953125 
       2   0.37511765     0.009928     9928 7.3524223e-05   0.19523898 7.3524223e-05    0.1953125            0    0.1953125 
       2   0.37511767     0.009929     9929 7.3539034e-05   0.19523896 7.3539034e-05    0.1953125            0    0.1953125 
       2    0.3751177      0.00993     9930 7.3553846e-05   0.19523895 7.3553846e-05    0.1953125            0    0.1953125 
       2   0.37511772     0.009931     9931 7.3568659e-05   0.19523893 7.3568659e-05    0.1953125            0    0.1953125 
       2   0.37511774     0.009932     9932 7.3583474e-05   0.19523892 7.3583474e-05    0.1953125            0    0.1953125 
       2   0.37511777     0.009933     9933 7.359829e-05    0.1952389 7.359829e-05    0.1953125            0    0.1953125 
       2   0.37511779     0.009934     9934 7.3613108e-05   0.19523889 7.3613108e-05    0.1953125            0    0.1953125 
       2   0.37511782     0.009935     9935 7.3627927e-05   0.19523887 7.3627927e-05    0.1953125            0    0.1953125 
       2   0.37511784     0.009936     9936 7.3642748e-05   0.19523886 7.3642748e-05    0.1953125            0    0.1953125 
       2   0.37511786     0.009937     9937 7.365757e-05   0.19523884 7.365757e-05    0.1953125            0    0.1953125 
       2   0.37511789     0.009938     9938 7.3672394e-05   0.19523883 7.3672394e-05    0.1953125            0    0.1953125 
       2   0.37511791     0.009939     9939 7.368722e-05   0.19523881 7.368722e-05    0.1953125            0    0.1953125 
       2   0.37511793      0.00994     9940 7.3702046e-05    0.1952388 7.3702046e-05    0.1953125            0    0.1953125 
       2   0.37511796     0.009941     9941 7.3716875e-05   0.19523878 7.3716875e-05    0.1953125            0    0.1953125 
       2   0.37511798     0.009942     9942 7.3731704e-05   0.19523877 7.3731704e-05    0.1953125            0    0.1953125 
       2   0.37511801     0.009943     9943 7.3746536e-05   0.19523875 7.3746536e-05    0.1953125            0    0.1953125 
       2   0.37511803     0.009944     9944 7.3761368e-05   0.19523874 7.3761368e-05    0.1953125            0    0.1953125 
       2   0.37511805     0.009945     9945 7.3776203e-05   0.19523872 7.3776203e-05    0.1953125            0    0.1953125 
       2   0.37511808     0.009946     9946 7.3791038e-05   0.19523871 7.3791038e-05    0.1953125            0    0.1953125 
       2    0.3751181     0.009947     9947 7.3805875e-05   0.19523869 7.3805875e-05    0.1953125            0    0.1953125 
       2   0.37511812     0.009948     9948 7.3820714e-05   0.19523868 7.3820714e-05    0.1953125            0    0.1953125 
       2   0.37511815     0.009949     9949 7.3835554e-05   0.19523866 7.3835554e-05    0.1953125            0    0.1953125 
       2   0.37511817      0.00995     9950 7.3850396e-05   0.19523865 7.3850396e-05    0.1953125            0    0.1953125 
       2    0.3751182     0.009951     9951 7.3865239e-05   0.19523863 7.3865239e-05    0.1953125            0    0.1953125 
       2   0.37511822     0.009952     9952 7.3880084e-05   0.19523862 7.3880084e-05    0.1953125            0    0.1953125 
       2   0.37511824     0.009953     9953 7.389493e-05   0.19523861 7.389493e-05    0.1953125            0    0.1953125 
       2   0.37511827     0.009954     9954 7.3909778e-05   0.19523859 7.3909778e-05    0.1953125            0    0.1953125 
       2   0.37511829     0.009955     9955 7.3924627e-05   0.19523858 7.3924627e-05    0.1953125            0    0.1953125 
       2   0.37511831     0.009956     9956 7.3939477e-05   0.19523856 7.3939477e-05    0.1953125            0    0.1953125 
       2   0.37511834     0.009957     9957 7.395433e-05   0.19523855 7.395433e-05    0.1953125            0    0.1953125 
       2   0.37511836     0.009958     9958 7.3969183e-05   0.19523853 7.3969183e-05    0.1953125            0    0.1953125 
       2   0.37511839     0.009959     9959 7.3984038e-05   0.19523852 7.3984038e-05    0.1953125            0    0.1953125 
       2   0.37511841      0.00996     9960 7.3998895e-05    0.1952385 7.3998895e-05    0.1953125            0    0.1953125 
       2   0.37511843     0.009961     9961 7.4013753e-05   0.19523849 7.4013753e-05    0.1953125            0    0.1953125 
       2   0.37511846     0.009962     9962 7.4028613e-05   0.19523847 7.4028613e-05    0.1953125            0    0.1953125 
       2   0.37511848     0.009963     9963 7.4043474e-05   0.19523846 7.4043474e-05    0.1953125            0    0.1953125 
       2    0.3751185     0.009964     9964 7.4058336e-05   0.19523844 7.4058336e-05    0.1953125            0    0.1953125 
       2   0.37511853     0.009965     9965  7.40732e-05   0.19523843  7.40732e-05    0.1953125            0    0.1953125 
       2   0.37511855     0.009966     9966 7.4088066e-05   0.19523841 7.4088066e-05    0.1953125            0    0.1953125 
       2   0.37511858     0.009967     9967 7.4102933e-05    0.1952384 7.4102933e-05    0.1953125            0    0.1953125 
       2    0.3751186     0.009968     9968 7.4117801e-05   0.19523838 7.4117801e-05    0.1953125            0    0.1953125 
       2   0.37511862     0.009969     9969 7.4132671e-05   0.19523837 7.4132671e-05    0.1953125            0    0.1953125 
       2   0.37511865      0.00997     9970 7.4147543e-05   0.19523835 7.4147543e-05    0.1953125            0    0.1953125 
       2   0.37511867     0.009971     9971 7.4162416e-05   0.19523834 7.4162416e-05    0.1953125            0    0.1953125 
       2   0.37511869     0.009972     9972 7.417729e-05   0.19523832 7.417729e-05    0.1953125            0    0.1953125 
       2   0.37511872     0.009973     9973 7.4192166e-05   0.19523831 7.4192166e-05    0.1953125            0    0.1953125 
       2   0.37511874     0.009974     9974 7.4207044e-05   0.19523829 7.4207044e-05    0.1953125            0    0.1953125 
       2   0.37511877     0.009975     9975 7.4221923e-05   0.19523828 7.4221923e-05    0.1953125            0    0.1953125 
       2   0.37511879     0.009976     9976 7.4236803e-05   0.19523826 7.4236803e-05    0.1953125            0    0.1953125 
       2   0.37511881     0.009977     9977 7.4251685e-05   0.19523825 7.4251685e-05    0.1953125            0    0.1953125 
       2   0.37511884     0.009978     9978 7.4266569e-05   0.19523823 7.4266569e-05    0.1953125            0    0.1953125 
       2   0.37511886     0.009979     9979 7.4281453e-05   0.19523822 7.4281453e-05    0.1953125            0    0.1953125 
       2   0.37511889      0.00998     9980 7.429634e-05    0.1952382 7.429634e-05    0.1953125            0    0.1953125 
       2   0.37511891     0.009981     9981 7.4311228e-05   0.19523819 7.4311228e-05    0.1953125            0    0.1953125 
       2   0.37511893     0.009982     9982 7.4326117e-05   0.19523817 7.4326117e-05    0.1953125            0    0.1953125 
       2   0.37511896     0.009983     9983 7.4341008e-05   0.19523816 7.4341008e-05    0.1953125            0    0.1953125 
       2   0.37511898     0.009984     9984  7.43559e-05   0.19523814  7.43559e-05    0.1953125            0    0.1953125 
       2     0.375119     0.009985     9985 7.4370794e-05   0.19523813 7.4370794e-05    0.1953125            0    0.1953125 
       2   0.37511903     0.009986     9986 7.438569e-05   0.19523811 7.438569e-05    0.1953125            0    0.1953125 
       2   0.37511905     0.009987     9987 7.4400586e-05    0.1952381 7.4400586e-05    0.1953125            0    0.1953125 
       2   0.37511908     0.009988     9988 7.4415485e-05   0.19523808 7.4415485e-05    0.1953125            0    0.1953125 
       2    0.3751191     0.009989     9989 7.4430385e-05   0.19523807 7.4430385e-05    0.1953125            0    0.1953125 
       2   0.37511912      0.00999     9990 7.4445286e-05   0.19523805 7.4445286e-05    0.1953125            0    0.1953125 
       2   0.37511915     0.009991     9991 7.4460189e-05   0.19523804 7.4460189e-05    0.1953125            0    0.1953125 
       2   0.37511917     0.009992     9992 7.4475093e-05   0.19523802 7.4475093e-05    0.1953125            0    0.1953125 
       2    0.3751192     0.009993     9993 7.4489999e-05   0.19523801 7.4489999e-05    0.1953125            0    0.1953125 
       2   0.37511922     0.009994     9994 7.4504906e-05     0.195238 7.4504906e-05    0.1953125            0    0.1953125 
       2   0.37511924     0.009995     9995 7.4519815e-05   0.19523798 7.4519815e-05    0.1953125            0    0.1953125 
       2   0.37511927     0.009996     9996 7.4534725e-05   0.19523797 7.4534725e-05    0.1953125            0    0.1953125 
       2   0.37511929     0.009997     9997 7.4549637e-05   0.19523795 7.4549637e-05    0.1953125            0    0.1953125 
       2   0.37511931     0.009998     9998 7.456455e-05   0.19523794 7.456455e-05    0.1953125            0    0.1953125 
       2   0.37511934     0.009999     9999 7.4579465e-05   0.19523792 7.4579465e-05    0.1953125            0    0.1953125 
       2   0.37511936         0.01    10000 7.4594381e-05   0.19523791 7.4594381e-05    0.1953125            0    0.1953125 
Loop time of 2.83342 on 4 procs for 10000 steps with 2 atoms

Performance: 304.931 tau/day, 3529.299 timesteps/s
84.6% CPU use with 4 MPI tasks x no OpenMP threads

MPI task timing breakdown:
Section |  min time  |  avg time  |  max time  |%varavg| %total
---------------------------------------------------------------
Pair    | 0.0038998  | 0.0060403  | 0.011109   |   3.8 |  0.21
Neigh   | 0          | 0          | 0          |   0.0 |  0.00
Comm    | 0.041014   | 0.050721   | 0.064018   |   4.4 |  1.79
Output  | 2.1789     | 2.3282     | 2.7244     |  15.0 | 82.17
Modify  | 0.0047626  | 0.005255   | 0.0063255  |   0.9 |  0.19
Other   |            | 0.4432     |            |       | 15.64

Nlocal:       0.500000 ave           1 max           0 min
Histogram: 2 0 0 0 0 0 0 0 0 2
Nghost:        1.50000 ave           2 max           1 min
Histogram: 2 0 0 0 0 0 0 0 0 2
Neighs:       0.250000 ave           1 max           0 min
Histogram: 3 0 0 0 0 0 0 0 0 1

Total # of neighbors = 1
Ave neighs/atom = 0.50000000
Neighbor list builds = 0
Dangerous builds = 0

# fix				nvt_int all nvt/sphere temp 1e-20 1e-20 .10
# run             ${rstep}
# min_modify		dmax .0001 line quadratic
# min_style quickmin
# minimize		0  0  100000  1000000
Total wall time: 0:01:32
