ITEM: TIMESTEP
0
ITEM: NUMBER OF ENTRIES
4084
ITEM: BOX BOUNDS xy xz yz pp pp pp
0.0000000000000000e+00 5.6000000000000014e+01 0.0000000000000000e+00
0.0000000000000000e+00 5.8196907134314287e+01 0.0000000000000000e+00
-2.8000000000000008e-01 2.8000000000000008e-01 0.0000000000000000e+00
ITEM: ENTRIES index c_1[1] c_1[2] c_2[1] c_2[2] c_2[3] c_2[4] c_2[5] 
1 1 1550 1.12 4.26326e-14 7.199 -12.469 0 
2 18 20 1.12 2.84217e-14 -14.398 0 0 
3 19 21 1.12 2.84217e-14 -14.398 0 0 
4 19 20 1.12 0 -7.199 -12.469 0 
5 20 69 1.12 0 7.199 -12.469 0 
6 24 26 1.12 2.84217e-14 -14.398 0 0 
7 25 27 1.12 2.84217e-14 -14.398 0 0 
8 25 26 1.12 0 -7.199 -12.469 0 
9 26 75 1.12 0 7.199 -12.469 0 
10 29 31 1.12 2.84217e-14 -14.398 0 0 
11 30 81 1.12 0 -7.199 -12.469 0 
12 31 30 1.12 0 7.199 -12.469 0 
13 32 34 1.12 4.26326e-14 -14.398 0 0 
14 32 83 1.12 0 -7.199 -12.469 0 
15 33 32 1.12 0 7.199 -12.469 0 
16 33 34 1.12 0 -7.199 -12.469 0 
17 34 83 1.12 0 7.199 -12.469 0 
18 35 36 1.12 0 -7.199 -12.469 0 
19 36 85 1.12 0 7.199 -12.469 0 
20 37 39 1.12 4.26326e-14 -14.398 0 0 
21 37 38 1.12 0 -7.199 -12.469 0 
22 38 87 1.12 0 7.199 -12.469 0 
23 38 89 1.12 0 -7.199 -12.469 0 
24 39 38 1.12 0 7.199 -12.469 0 
25 40 91 1.12 0 -7.199 -12.469 0 
26 41 40 1.12 0 7.199 -12.469 0 
27 42 44 1.12 4.26326e-14 -14.398 0 0 
28 42 93 1.12 0 -7.199 -12.469 0 
29 43 42 1.12 0 7.199 -12.469 0 
30 43 44 1.12 0 -7.199 -12.469 0 
31 44 93 1.12 0 7.199 -12.469 0 
32 45 46 1.12 0 -7.199 -12.469 0 
33 46 95 1.12 0 7.199 -12.469 0 
34 47 48 1.12 0 -7.199 -12.469 0 
35 48 97 1.12 0 7.199 -12.469 0 
36 49 1501 1.12 4.26326e-14 -14.398 0 0 
37 49 50 1.12 0 -7.199 -12.469 0 
38 50 99 1.12 0 7.199 -12.469 0 
39 50 1551 1.12 0 -7.199 -12.469 0 
40 51 1600 1.12 4.26326e-14 7.199 -12.469 0 
41 52 101 1.12 1.42109e-14 7.199 -12.469 0 
42 52 103 1.12 1.42109e-14 -7.199 -12.469 0 
43 54 103 1.12 0 7.199 -12.469 0 
44 54 105 1.12 1.42109e-14 -7.199 -12.469 0 
45 56 105 1.12 1.42109e-14 7.199 -12.469 0 
46 56 107 1.12 0 -7.199 -12.469 0 
47 58 107 1.12 1.42109e-14 7.199 -12.469 0 
48 58 109 1.12 1.42109e-14 -7.199 -12.469 0 
49 60 109 1.12 0 7.199 -12.469 0 
50 60 111 1.12 0 -7.199 -12.469 0 
51 62 111 1.12 0 7.199 -12.469 0 
52 62 113 1.12 0 -7.199 -12.469 0 
53 64 113 1.12 0 7.199 -12.469 0 
54 64 115 1.12 0 -7.199 -12.469 0 
55 66 115 1.12 0 7.199 -12.469 0 
56 66 117 1.12 0 -7.199 -12.469 0 
57 68 70 1.12 2.84217e-14 -14.398 0 0 
58 68 117 1.12 0 7.199 -12.469 0 
59 68 119 1.12 0 -7.199 -12.469 0 
60 69 71 1.12 2.84217e-14 -14.398 0 0 
61 70 119 1.12 2.84217e-14 7.199 -12.469 0 
62 70 121 1.12 0 -7.199 -12.469 0 
63 72 121 1.12 0 7.199 -12.469 0 
64 72 123 1.12 0 -7.199 -12.469 0 
65 74 76 1.12 2.84217e-14 -14.398 0 0 
66 74 123 1.12 0 7.199 -12.469 0 
67 74 125 1.12 0 -7.199 -12.469 0 
68 75 77 1.12 2.84217e-14 -14.398 0 0 
69 76 125 1.12 2.84217e-14 7.199 -12.469 0 
70 76 127 1.12 0 -7.199 -12.469 0 
71 78 127 1.12 0 7.199 -12.469 0 
72 78 129 1.12 0 -7.199 -12.469 0 
73 79 81 1.12 2.84217e-14 -14.398 0 0 
74 80 129 1.12 0 7.199 -12.469 0 
75 80 131 1.12 2.84217e-14 -7.199 -12.469 0 
76 82 84 1.12 4.26326e-14 -14.398 0 0 
77 82 133 1.12 2.84217e-14 -7.199 -12.469 0 
78 84 133 1.12 2.84217e-14 7.199 -12.469 0 
79 86 135 1.12 2.84217e-14 7.199 -12.469 0 
80 87 89 1.12 4.26326e-14 -14.398 0 0 
81 88 137 1.12 2.84217e-14 7.199 -12.469 0 
82 88 139 1.12 2.84217e-14 -7.199 -12.469 0 
83 90 141 1.12 2.84217e-14 -7.199 -12.469 0 
84 92 94 1.12 4.26326e-14 -14.398 0 0 
85 92 143 1.12 2.84217e-14 -7.199 -12.469 0 
86 94 143 1.12 2.84217e-14 7.199 -12.469 0 
87 96 145 1.12 2.84217e-14 7.199 -12.469 0 
88 98 147 1.12 2.84217e-14 7.199 -12.469 0 
89 99 1551 1.12 4.26326e-14 -14.398 0 0 
90 100 149 1.12 2.84217e-14 7.199 -12.469 0 
91 100 1601 1.12 2.84217e-14 -7.199 -12.469 0 
92 101 1650 1.12 5.68434e-14 7.199 -12.469 0 
93 101 102 1.12 1.42109e-14 -7.199 -12.469 0 
94 103 102 1.12 1.42109e-14 7.199 -12.469 0 
95 103 104 1.12 0 -7.199 -12.469 0 
96 105 104 1.12 1.42109e-14 7.199 -12.469 0 
97 105 106 1.12 1.42109e-14 -7.199 -12.469 0 
98 107 106 1.12 0 7.199 -12.469 0 
99 107 108 1.12 1.42109e-14 -7.199 -12.469 0 
100 109 108 1.12 1.42109e-14 7.199 -12.469 0 
101 109 110 1.12 0 -7.199 -12.469 0 
102 111 110 1.12 0 7.199 -12.469 0 
103 111 112 1.12 0 -7.199 -12.469 0 
104 113 112 1.12 0 7.199 -12.469 0 
105 113 114 1.12 0 -7.199 -12.469 0 
106 115 114 1.12 0 7.199 -12.469 0 
107 115 116 1.12 0 -7.199 -12.469 0 
108 117 116 1.12 0 7.199 -12.469 0 
109 117 118 1.12 0 -7.199 -12.469 0 
110 118 120 1.12 2.84217e-14 -14.398 0 0 
111 119 121 1.12 2.84217e-14 -14.398 0 0 
112 119 118 1.12 0 7.199 -12.469 0 
113 119 120 1.12 2.84217e-14 -7.199 -12.469 0 
114 121 120 1.12 0 7.199 -12.469 0 
115 121 122 1.12 0 -7.199 -12.469 0 
116 123 122 1.12 0 7.199 -12.469 0 
117 123 124 1.12 0 -7.199 -12.469 0 
118 124 126 1.12 2.84217e-14 -14.398 0 0 
119 125 127 1.12 2.84217e-14 -14.398 0 0 
120 125 124 1.12 0 7.199 -12.469 0 
121 125 126 1.12 2.84217e-14 -7.199 -12.469 0 
122 127 126 1.12 0 7.199 -12.469 0 
123 127 128 1.12 0 -7.199 -12.469 0 
124 129 131 1.12 2.84217e-14 -14.398 0 0 
125 129 128 1.12 0 7.199 -12.469 0 
126 129 130 1.12 0 -7.199 -12.469 0 
127 131 130 1.12 2.84217e-14 7.199 -12.469 0 
128 132 134 1.12 4.26326e-14 -14.398 0 0 
129 133 132 1.12 2.84217e-14 7.199 -12.469 0 
130 133 134 1.12 2.84217e-14 -7.199 -12.469 0 
131 135 136 1.12 2.84217e-14 -7.199 -12.469 0 
132 137 139 1.12 4.26326e-14 -14.398 0 0 
133 137 138 1.12 2.84217e-14 -7.199 -12.469 0 
134 139 138 1.12 2.84217e-14 7.199 -12.469 0 
135 141 140 1.12 2.84217e-14 7.199 -12.469 0 
136 142 144 1.12 4.26326e-14 -14.398 0 0 
137 143 142 1.12 2.84217e-14 7.199 -12.469 0 
138 143 144 1.12 2.84217e-14 -7.199 -12.469 0 
139 145 146 1.12 2.84217e-14 -7.199 -12.469 0 
140 147 148 1.12 2.84217e-14 -7.199 -12.469 0 
141 149 1601 1.12 4.26326e-14 -14.398 0 0 
142 149 150 1.12 2.84217e-14 -7.199 -12.469 0 
143 151 1700 1.12 5.68434e-14 7.199 -12.469 0 
144 151 152 1.12 1.42109e-14 -7.199 -12.469 0 
145 153 152 1.12 1.42109e-14 7.199 -12.469 0 
146 153 154 1.12 0 -7.199 -12.469 0 
147 155 154 1.12 1.42109e-14 7.199 -12.469 0 
148 155 156 1.12 1.42109e-14 -7.199 -12.469 0 
149 157 156 1.12 0 7.199 -12.469 0 
150 157 158 1.12 1.42109e-14 -7.199 -12.469 0 
151 159 158 1.12 1.42109e-14 7.199 -12.469 0 
152 159 160 1.12 0 -7.199 -12.469 0 
153 160 211 1.12 0 -7.199 -12.469 0 
154 161 160 1.12 2.84217e-14 7.199 -12.469 0 
155 161 162 1.12 0 -7.199 -12.469 0 
156 163 162 1.12 0 7.199 -12.469 0 
157 163 164 1.12 2.84217e-14 -7.199 -12.469 0 
158 164 213 1.12 0 7.199 -12.469 0 
159 165 164 1.12 0 7.199 -12.469 0 
160 165 166 1.12 2.84217e-14 -7.199 -12.469 0 
161 166 215 1.12 0 7.199 -12.469 0 
162 167 166 1.12 0 7.199 -12.469 0 
163 167 168 1.12 0 -7.199 -12.469 0 
164 168 170 1.12 2.84217e-14 -14.398 0 0 
165 169 171 1.12 2.84217e-14 -14.398 0 0 
166 169 168 1.12 0 7.199 -12.469 0 
167 169 170 1.12 2.84217e-14 -7.199 -12.469 0 
168 170 219 1.12 0 7.199 -12.469 0 
169 171 170 1.12 0 7.199 -12.469 0 
170 171 172 1.12 0 -7.199 -12.469 0 
171 173 172 1.12 0 7.199 -12.469 0 
172 173 174 1.12 0 -7.199 -12.469 0 
173 174 176 1.12 2.84217e-14 -14.398 0 0 
174 175 177 1.12 2.84217e-14 -14.398 0 0 
175 175 174 1.12 0 7.199 -12.469 0 
176 175 176 1.12 2.84217e-14 -7.199 -12.469 0 
177 176 225 1.12 0 7.199 -12.469 0 
178 177 176 1.12 0 7.199 -12.469 0 
179 177 178 1.12 0 -7.199 -12.469 0 
180 179 181 1.12 2.84217e-14 -14.398 0 0 
181 179 178 1.12 0 7.199 -12.469 0 
182 179 180 1.12 0 -7.199 -12.469 0 
183 180 231 1.12 0 -7.199 -12.469 0 
184 181 180 1.12 2.84217e-14 7.199 -12.469 0 
185 182 184 1.12 4.26326e-14 -14.398 0 0 
186 182 233 1.12 0 -7.199 -12.469 0 
187 183 182 1.12 2.84217e-14 7.199 -12.469 0 
188 183 184 1.12 2.84217e-14 -7.199 -12.469 0 
189 184 233 1.12 0 7.199 -12.469 0 
190 185 186 1.12 2.84217e-14 -7.199 -12.469 0 
191 186 235 1.12 0 7.199 -12.469 0 
192 187 189 1.12 4.26326e-14 -14.398 0 0 
193 187 188 1.12 2.84217e-14 -7.199 -12.469 0 
194 188 237 1.12 0 7.199 -12.469 0 
195 188 239 1.12 0 -7.199 -12.469 0 
196 189 188 1.12 2.84217e-14 7.199 -12.469 0 
197 190 241 1.12 0 -7.199 -12.469 0 
198 191 190 1.12 2.84217e-14 7.199 -12.469 0 
199 192 194 1.12 4.26326e-14 -14.398 0 0 
200 192 243 1.12 0 -7.199 -12.469 0 
201 193 192 1.12 2.84217e-14 7.199 -12.469 0 
202 193 194 1.12 2.84217e-14 -7.199 -12.469 0 
203 194 243 1.12 0 7.199 -12.469 0 
204 195 196 1.12 2.84217e-14 -7.199 -12.469 0 
205 196 245 1.12 0 7.199 -12.469 0 
206 197 198 1.12 2.84217e-14 -7.199 -12.469 0 
207 198 247 1.12 0 7.199 -12.469 0 
208 199 1651 1.12 4.26326e-14 -14.398 0 0 
209 199 200 1.12 2.84217e-14 -7.199 -12.469 0 
210 200 249 1.12 0 7.199 -12.469 0 
211 200 1701 1.12 0 -7.199 -12.469 0 
212 201 1750 1.12 4.26326e-14 7.199 -12.469 0 
213 202 251 1.12 1.42109e-14 7.199 -12.469 0 
214 202 253 1.12 1.42109e-14 -7.199 -12.469 0 
215 204 253 1.12 0 7.199 -12.469 0 
216 204 255 1.12 1.42109e-14 -7.199 -12.469 0 
217 206 255 1.12 1.42109e-14 7.199 -12.469 0 
218 206 257 1.12 0 -7.199 -12.469 0 
219 208 257 1.12 1.42109e-14 7.199 -12.469 0 
220 208 259 1.12 1.42109e-14 -7.199 -12.469 0 
221 210 259 1.12 0 7.199 -12.469 0 
222 210 261 1.12 2.84217e-14 -7.199 -12.469 0 
223 211 210 1.12 0 7.199 -12.469 0 
224 212 261 1.12 0 7.199 -12.469 0 
225 212 263 1.12 0 -7.199 -12.469 0 
226 213 214 1.12 0 -7.199 -12.469 0 
227 214 263 1.12 2.84217e-14 7.199 -12.469 0 
228 214 265 1.12 0 -7.199 -12.469 0 
229 215 216 1.12 0 -7.199 -12.469 0 
230 216 265 1.12 2.84217e-14 7.199 -12.469 0 
231 216 267 1.12 0 -7.199 -12.469 0 
232 218 220 1.12 2.84217e-14 -14.398 0 0 
233 218 267 1.12 0 7.199 -12.469 0 
234 218 269 1.12 0 -7.199 -12.469 0 
235 219 221 1.12 2.84217e-14 -14.398 0 0 
236 219 220 1.12 0 -7.199 -12.469 0 
237 220 269 1.12 2.84217e-14 7.199 -12.469 0 
238 220 271 1.12 0 -7.199 -12.469 0 
239 222 271 1.12 0 7.199 -12.469 0 
240 222 273 1.12 0 -7.199 -12.469 0 
241 224 226 1.12 2.84217e-14 -14.398 0 0 
242 224 273 1.12 0 7.199 -12.469 0 
243 224 275 1.12 0 -7.199 -12.469 0 
244 225 227 1.12 2.84217e-14 -14.398 0 0 
245 225 226 1.12 0 -7.199 -12.469 0 
246 226 275 1.12 2.84217e-14 7.199 -12.469 0 
247 226 277 1.12 0 -7.199 -12.469 0 
248 228 277 1.12 0 7.199 -12.469 0 
249 228 279 1.12 0 -7.199 -12.469 0 
250 229 231 1.12 2.84217e-14 -14.398 0 0 
251 230 279 1.12 0 7.199 -12.469 0 
252 230 281 1.12 2.84217e-14 -7.199 -12.469 0 
253 231 230 1.12 0 7.199 -12.469 0 
254 232 234 1.12 4.26326e-14 -14.398 0 0 
255 232 283 1.12 2.84217e-14 -7.199 -12.469 0 
256 233 232 1.12 0 7.199 -12.469 0 
257 233 234 1.12 0 -7.199 -12.469 0 
258 234 283 1.12 2.84217e-14 7.199 -12.469 0 
259 235 236 1.12 0 -7.199 -12.469 0 
260 236 285 1.12 2.84217e-14 7.199 -12.469 0 
261 237 239 1.12 4.26326e-14 -14.398 0 0 
262 237 238 1.12 0 -7.199 -12.469 0 
263 238 287 1.12 2.84217e-14 7.199 -12.469 0 
264 238 289 1.12 2.84217e-14 -7.199 -12.469 0 
265 239 238 1.12 0 7.199 -12.469 0 
266 240 291 1.12 2.84217e-14 -7.199 -12.469 0 
267 241 240 1.12 0 7.199 -12.469 0 
268 242 244 1.12 4.26326e-14 -14.398 0 0 
269 242 293 1.12 2.84217e-14 -7.199 -12.469 0 
270 243 242 1.12 0 7.199 -12.469 0 
271 243 244 1.12 0 -7.199 -12.469 0 
272 244 293 1.12 2.84217e-14 7.199 -12.469 0 
273 245 246 1.12 0 -7.199 -12.469 0 
274 246 295 1.12 2.84217e-14 7.199 -12.469 0 
275 247 248 1.12 0 -7.199 -12.469 0 
276 248 297 1.12 2.84217e-14 7.199 -12.469 0 
277 249 1701 1.12 4.26326e-14 -14.398 0 0 
278 249 250 1.12 0 -7.199 -12.469 0 
279 250 299 1.12 2.84217e-14 7.199 -12.469 0 
280 250 1751 1.12 2.84217e-14 -7.199 -12.469 0 
281 251 1800 1.12 0 7.199 -12.469 0 
282 268 270 1.12 2.84217e-14 -14.398 0 0 
283 269 271 1.12 2.84217e-14 -14.398 0 0 
284 274 276 1.12 2.84217e-14 -14.398 0 0 
285 275 277 1.12 2.84217e-14 -14.398 0 0 
286 279 281 1.12 2.84217e-14 -14.398 0 0 
287 282 284 1.12 4.26326e-14 -14.398 0 0 
288 287 289 1.12 4.26326e-14 -14.398 0 0 
289 292 294 1.12 4.26326e-14 -14.398 0 0 
290 299 1751 1.12 4.26326e-14 -14.398 0 0 
291 301 1850 1.12 9.9476e-14 7.199 -12.469 0 
292 301 302 1.12 5.68434e-14 -7.199 -12.469 0 
293 303 302 1.12 5.68434e-14 7.199 -12.469 0 
294 303 304 1.12 5.68434e-14 -7.199 -12.469 0 
295 305 304 1.12 5.68434e-14 7.199 -12.469 0 
296 305 306 1.12 5.68434e-14 -7.199 -12.469 0 
297 307 306 1.12 5.68434e-14 7.199 -12.469 0 
298 307 308 1.12 5.68434e-14 -7.199 -12.469 0 
299 309 308 1.12 5.68434e-14 7.199 -12.469 0 
300 309 310 1.12 5.68434e-14 -7.199 -12.469 0 
301 311 310 1.12 7.10543e-14 7.199 -12.469 0 
302 311 312 1.12 5.68434e-14 -7.199 -12.469 0 
303 313 312 1.12 5.68434e-14 7.199 -12.469 0 
304 313 314 1.12 7.10543e-14 -7.199 -12.469 0 
305 315 314 1.12 5.68434e-14 7.199 -12.469 0 
306 315 316 1.12 7.10543e-14 -7.199 -12.469 0 
307 317 316 1.12 5.68434e-14 7.199 -12.469 0 
308 317 318 1.12 5.68434e-14 -7.199 -12.469 0 
309 318 320 1.12 2.84217e-14 -14.398 0 0 
310 319 321 1.12 2.84217e-14 -14.398 0 0 
311 319 318 1.12 5.68434e-14 7.199 -12.469 0 
312 319 320 1.12 7.10543e-14 -7.199 -12.469 0 
313 321 320 1.12 5.68434e-14 7.199 -12.469 0 
314 321 322 1.12 5.68434e-14 -7.199 -12.469 0 
315 323 322 1.12 5.68434e-14 7.199 -12.469 0 
316 323 324 1.12 5.68434e-14 -7.199 -12.469 0 
317 324 326 1.12 2.84217e-14 -14.398 0 0 
318 325 327 1.12 2.84217e-14 -14.398 0 0 
319 325 324 1.12 5.68434e-14 7.199 -12.469 0 
320 325 326 1.12 7.10543e-14 -7.199 -12.469 0 
321 327 326 1.12 5.68434e-14 7.199 -12.469 0 
322 327 328 1.12 5.68434e-14 -7.199 -12.469 0 
323 329 331 1.12 2.84217e-14 -14.398 0 0 
324 329 328 1.12 5.68434e-14 7.199 -12.469 0 
325 329 330 1.12 5.68434e-14 -7.199 -12.469 0 
326 331 330 1.12 7.10543e-14 7.199 -12.469 0 
327 331 332 1.12 4.26326e-14 -7.199 -12.469 0 
328 332 334 1.12 4.26326e-14 -14.398 0 0 
329 333 332 1.12 7.10543e-14 7.199 -12.469 0 
330 333 334 1.12 7.10543e-14 -7.199 -12.469 0 
331 335 334 1.12 4.26326e-14 7.199 -12.469 0 
332 335 336 1.12 7.10543e-14 -7.199 -12.469 0 
333 337 339 1.12 4.26326e-14 -14.398 0 0 
334 337 336 1.12 4.26326e-14 7.199 -12.469 0 
335 337 338 1.12 7.10543e-14 -7.199 -12.469 0 
336 339 338 1.12 7.10543e-14 7.199 -12.469 0 
337 339 340 1.12 4.26326e-14 -7.199 -12.469 0 
338 341 340 1.12 7.10543e-14 7.199 -12.469 0 
339 341 342 1.12 4.26326e-14 -7.199 -12.469 0 
340 342 344 1.12 4.26326e-14 -14.398 0 0 
341 343 342 1.12 7.10543e-14 7.199 -12.469 0 
342 343 344 1.12 7.10543e-14 -7.199 -12.469 0 
343 345 344 1.12 4.26326e-14 7.199 -12.469 0 
344 345 346 1.12 7.10543e-14 -7.199 -12.469 0 
345 347 346 1.12 4.26326e-14 7.199 -12.469 0 
346 347 348 1.12 7.10543e-14 -7.199 -12.469 0 
347 349 1801 1.12 4.26326e-14 -14.398 0 0 
348 349 348 1.12 4.26326e-14 7.199 -12.469 0 
349 349 350 1.12 7.10543e-14 -7.199 -12.469 0 
350 351 1900 1.12 7.10543e-14 7.199 -12.469 0 
351 351 352 1.12 4.26326e-14 -7.199 -12.469 0 
352 353 352 1.12 4.26326e-14 7.199 -12.469 0 
353 353 354 1.12 4.26326e-14 -7.199 -12.469 0 
354 355 354 1.12 4.26326e-14 7.199 -12.469 0 
355 355 356 1.12 4.26326e-14 -7.199 -12.469 0 
356 357 356 1.12 4.26326e-14 7.199 -12.469 0 
357 357 358 1.12 4.26326e-14 -7.199 -12.469 0 
358 359 358 1.12 4.26326e-14 7.199 -12.469 0 
359 359 360 1.12 4.26326e-14 -7.199 -12.469 0 
360 361 360 1.12 2.84217e-14 7.199 -12.469 0 
361 361 362 1.12 4.26326e-14 -7.199 -12.469 0 
362 363 362 1.12 4.26326e-14 7.199 -12.469 0 
363 363 364 1.12 2.84217e-14 -7.199 -12.469 0 
364 365 364 1.12 4.26326e-14 7.199 -12.469 0 
365 365 366 1.12 2.84217e-14 -7.199 -12.469 0 
366 367 366 1.12 4.26326e-14 7.199 -12.469 0 
367 367 368 1.12 4.26326e-14 -7.199 -12.469 0 
368 368 370 1.12 2.84217e-14 -14.398 0 0 
369 369 371 1.12 2.84217e-14 -14.398 0 0 
370 369 368 1.12 4.26326e-14 7.199 -12.469 0 
371 369 370 1.12 5.68434e-14 -7.199 -12.469 0 
372 371 370 1.12 4.26326e-14 7.199 -12.469 0 
373 371 372 1.12 4.26326e-14 -7.199 -12.469 0 
374 373 372 1.12 4.26326e-14 7.199 -12.469 0 
375 373 374 1.12 4.26326e-14 -7.199 -12.469 0 
376 374 376 1.12 2.84217e-14 -14.398 0 0 
377 375 377 1.12 2.84217e-14 -14.398 0 0 
378 375 374 1.12 4.26326e-14 7.199 -12.469 0 
379 375 376 1.12 5.68434e-14 -7.199 -12.469 0 
380 377 376 1.12 4.26326e-14 7.199 -12.469 0 
381 377 378 1.12 4.26326e-14 -7.199 -12.469 0 
382 379 381 1.12 2.84217e-14 -14.398 0 0 
383 379 378 1.12 4.26326e-14 7.199 -12.469 0 
384 379 380 1.12 4.26326e-14 -7.199 -12.469 0 
385 381 380 1.12 5.68434e-14 7.199 -12.469 0 
386 381 382 1.12 2.84217e-14 -7.199 -12.469 0 
387 382 384 1.12 4.26326e-14 -14.398 0 0 
388 383 382 1.12 5.68434e-14 7.199 -12.469 0 
389 383 384 1.12 5.68434e-14 -7.199 -12.469 0 
390 385 384 1.12 2.84217e-14 7.199 -12.469 0 
391 385 386 1.12 5.68434e-14 -7.199 -12.469 0 
392 387 389 1.12 4.26326e-14 -14.398 0 0 
393 387 386 1.12 2.84217e-14 7.199 -12.469 0 
394 387 388 1.12 5.68434e-14 -7.199 -12.469 0 
395 389 388 1.12 5.68434e-14 7.199 -12.469 0 
396 389 390 1.12 2.84217e-14 -7.199 -12.469 0 
397 391 390 1.12 5.68434e-14 7.199 -12.469 0 
398 391 392 1.12 2.84217e-14 -7.199 -12.469 0 
399 392 394 1.12 4.26326e-14 -14.398 0 0 
400 393 392 1.12 5.68434e-14 7.199 -12.469 0 
401 393 394 1.12 5.68434e-14 -7.199 -12.469 0 
402 395 394 1.12 2.84217e-14 7.199 -12.469 0 
403 395 396 1.12 5.68434e-14 -7.199 -12.469 0 
404 397 396 1.12 2.84217e-14 7.199 -12.469 0 
405 397 398 1.12 5.68434e-14 -7.199 -12.469 0 
406 399 1851 1.12 4.26326e-14 -14.398 0 0 
407 399 398 1.12 2.84217e-14 7.199 -12.469 0 
408 399 400 1.12 5.68434e-14 -7.199 -12.469 0 
409 401 1950 1.12 5.68434e-14 7.199 -12.469 0 
410 401 402 1.12 1.42109e-14 -7.199 -12.469 0 
411 403 402 1.12 1.42109e-14 7.199 -12.469 0 
412 403 404 1.12 0 -7.199 -12.469 0 
413 405 404 1.12 1.42109e-14 7.199 -12.469 0 
414 405 406 1.12 1.42109e-14 -7.199 -12.469 0 
415 407 406 1.12 0 7.199 -12.469 0 
416 407 408 1.12 1.42109e-14 -7.199 -12.469 0 
417 409 408 1.12 1.42109e-14 7.199 -12.469 0 
418 409 410 1.12 0 -7.199 -12.469 0 
419 411 410 1.12 2.84217e-14 7.199 -12.469 0 
420 411 412 1.12 0 -7.199 -12.469 0 
421 413 412 1.12 0 7.199 -12.469 0 
422 413 414 1.12 2.84217e-14 -7.199 -12.469 0 
423 415 414 1.12 0 7.199 -12.469 0 
424 415 416 1.12 2.84217e-14 -7.199 -12.469 0 
425 417 416 1.12 0 7.199 -12.469 0 
426 417 418 1.12 0 -7.199 -12.469 0 
427 418 420 1.12 2.84217e-14 -14.398 0 0 
428 419 421 1.12 2.84217e-14 -14.398 0 0 
429 419 418 1.12 0 7.199 -12.469 0 
430 419 420 1.12 2.84217e-14 -7.199 -12.469 0 
431 421 420 1.12 0 7.199 -12.469 0 
432 421 422 1.12 0 -7.199 -12.469 0 
433 423 422 1.12 0 7.199 -12.469 0 
434 423 424 1.12 0 -7.199 -12.469 0 
435 424 426 1.12 2.84217e-14 -14.398 0 0 
436 425 427 1.12 2.84217e-14 -14.398 0 0 
437 425 424 1.12 0 7.199 -12.469 0 
438 425 426 1.12 2.84217e-14 -7.199 -12.469 0 
439 427 426 1.12 0 7.199 -12.469 0 
440 427 428 1.12 0 -7.199 -12.469 0 
441 429 431 1.12 2.84217e-14 -14.398 0 0 
442 429 428 1.12 0 7.199 -12.469 0 
443 429 430 1.12 0 -7.199 -12.469 0 
444 431 430 1.12 2.84217e-14 7.199 -12.469 0 
445 432 434 1.12 4.26326e-14 -14.398 0 0 
446 433 432 1.12 2.84217e-14 7.199 -12.469 0 
447 433 434 1.12 2.84217e-14 -7.199 -12.469 0 
448 435 436 1.12 2.84217e-14 -7.199 -12.469 0 
449 437 439 1.12 4.26326e-14 -14.398 0 0 
450 437 438 1.12 2.84217e-14 -7.199 -12.469 0 
451 439 438 1.12 2.84217e-14 7.199 -12.469 0 
452 441 440 1.12 2.84217e-14 7.199 -12.469 0 
453 442 444 1.12 4.26326e-14 -14.398 0 0 
454 443 442 1.12 2.84217e-14 7.199 -12.469 0 
455 443 444 1.12 2.84217e-14 -7.199 -12.469 0 
456 445 446 1.12 2.84217e-14 -7.199 -12.469 0 
457 447 448 1.12 2.84217e-14 -7.199 -12.469 0 
458 449 1901 1.12 4.26326e-14 -14.398 0 0 
459 449 450 1.12 2.84217e-14 -7.199 -12.469 0 
460 451 2000 1.12 4.26326e-14 7.199 -12.469 0 
461 452 501 1.12 4.26326e-14 7.199 -12.469 0 
462 452 503 1.12 4.26326e-14 -7.199 -12.469 0 
463 454 503 1.12 4.26326e-14 7.199 -12.469 0 
464 454 505 1.12 4.26326e-14 -7.199 -12.469 0 
465 456 505 1.12 4.26326e-14 7.199 -12.469 0 
466 456 507 1.12 4.26326e-14 -7.199 -12.469 0 
467 458 507 1.12 4.26326e-14 7.199 -12.469 0 
468 458 509 1.12 4.26326e-14 -7.199 -12.469 0 
469 460 509 1.12 4.26326e-14 7.199 -12.469 0 
470 460 511 1.12 2.84217e-14 -7.199 -12.469 0 
471 462 511 1.12 4.26326e-14 7.199 -12.469 0 
472 462 513 1.12 4.26326e-14 -7.199 -12.469 0 
473 464 513 1.12 2.84217e-14 7.199 -12.469 0 
474 464 515 1.12 4.26326e-14 -7.199 -12.469 0 
475 466 515 1.12 2.84217e-14 7.199 -12.469 0 
476 466 517 1.12 4.26326e-14 -7.199 -12.469 0 
477 468 470 1.12 2.84217e-14 -14.398 0 0 
478 468 517 1.12 4.26326e-14 7.199 -12.469 0 
479 468 519 1.12 4.26326e-14 -7.199 -12.469 0 
480 469 471 1.12 2.84217e-14 -14.398 0 0 
481 470 519 1.12 5.68434e-14 7.199 -12.469 0 
482 470 521 1.12 4.26326e-14 -7.199 -12.469 0 
483 472 521 1.12 4.26326e-14 7.199 -12.469 0 
484 472 523 1.12 4.26326e-14 -7.199 -12.469 0 
485 474 476 1.12 2.84217e-14 -14.398 0 0 
486 474 523 1.12 4.26326e-14 7.199 -12.469 0 
487 474 525 1.12 4.26326e-14 -7.199 -12.469 0 
488 475 477 1.12 2.84217e-14 -14.398 0 0 
489 476 525 1.12 5.68434e-14 7.199 -12.469 0 
490 476 527 1.12 4.26326e-14 -7.199 -12.469 0 
491 478 527 1.12 4.26326e-14 7.199 -12.469 0 
492 478 529 1.12 4.26326e-14 -7.199 -12.469 0 
493 479 481 1.12 2.84217e-14 -14.398 0 0 
494 480 529 1.12 4.26326e-14 7.199 -12.469 0 
495 480 531 1.12 5.68434e-14 -7.199 -12.469 0 
496 482 484 1.12 4.26326e-14 -14.398 0 0 
497 482 531 1.12 2.84217e-14 7.199 -12.469 0 
498 482 533 1.12 5.68434e-14 -7.199 -12.469 0 
499 484 533 1.12 5.68434e-14 7.199 -12.469 0 
500 484 535 1.12 2.84217e-14 -7.199 -12.469 0 
501 486 535 1.12 5.68434e-14 7.199 -12.469 0 
502 486 537 1.12 2.84217e-14 -7.199 -12.469 0 
503 487 489 1.12 4.26326e-14 -14.398 0 0 
504 488 537 1.12 5.68434e-14 7.199 -12.469 0 
505 488 539 1.12 5.68434e-14 -7.199 -12.469 0 
506 490 539 1.12 2.84217e-14 7.199 -12.469 0 
507 490 541 1.12 5.68434e-14 -7.199 -12.469 0 
508 492 494 1.12 4.26326e-14 -14.398 0 0 
509 492 541 1.12 2.84217e-14 7.199 -12.469 0 
510 492 543 1.12 5.68434e-14 -7.199 -12.469 0 
511 494 543 1.12 5.68434e-14 7.199 -12.469 0 
512 494 545 1.12 2.84217e-14 -7.199 -12.469 0 
513 496 545 1.12 5.68434e-14 7.199 -12.469 0 
514 496 547 1.12 2.84217e-14 -7.199 -12.469 0 
515 498 547 1.12 5.68434e-14 7.199 -12.469 0 
516 498 549 1.12 2.84217e-14 -7.199 -12.469 0 
517 499 1951 1.12 4.26326e-14 -14.398 0 0 
518 500 549 1.12 5.68434e-14 7.199 -12.469 0 
519 500 2001 1.12 5.68434e-14 -7.199 -12.469 0 
520 518 520 1.12 2.84217e-14 -14.398 0 0 
521 519 521 1.12 2.84217e-14 -14.398 0 0 
522 524 526 1.12 2.84217e-14 -14.398 0 0 
523 525 527 1.12 2.84217e-14 -14.398 0 0 
524 529 531 1.12 2.84217e-14 -14.398 0 0 
525 532 534 1.12 4.26326e-14 -14.398 0 0 
526 537 539 1.12 4.26326e-14 -14.398 0 0 
527 542 544 1.12 4.26326e-14 -14.398 0 0 
528 549 2001 1.12 4.26326e-14 -14.398 0 0 
529 551 2100 1.12 1.27898e-13 7.199 -12.469 0 
530 551 552 1.12 8.52651e-14 -7.199 -12.469 0 
531 553 552 1.12 8.52651e-14 7.199 -12.469 0 
532 553 554 1.12 8.52651e-14 -7.199 -12.469 0 
533 555 554 1.12 7.10543e-14 7.199 -12.469 0 
534 555 556 1.12 7.10543e-14 -7.199 -12.469 0 
535 557 556 1.12 8.52651e-14 7.199 -12.469 0 
536 557 558 1.12 7.10543e-14 -7.199 -12.469 0 
537 559 558 1.12 7.10543e-14 7.199 -12.469 0 
538 559 560 1.12 8.52651e-14 -7.199 -12.469 0 
539 561 560 1.12 8.52651e-14 7.199 -12.469 0 
540 561 562 1.12 8.52651e-14 -7.199 -12.469 0 
541 563 562 1.12 8.52651e-14 7.199 -12.469 0 
542 563 564 1.12 8.52651e-14 -7.199 -12.469 0 
543 565 564 1.12 8.52651e-14 7.199 -12.469 0 
544 565 566 1.12 8.52651e-14 -7.199 -12.469 0 
545 567 566 1.12 8.52651e-14 7.199 -12.469 0 
546 567 568 1.12 8.52651e-14 -7.199 -12.469 0 
547 568 570 1.12 2.84217e-14 -14.398 0 0 
548 569 571 1.12 2.84217e-14 -14.398 0 0 
549 569 568 1.12 8.52651e-14 7.199 -12.469 0 
550 569 570 1.12 9.9476e-14 -7.199 -12.469 0 
551 571 570 1.12 8.52651e-14 7.199 -12.469 0 
552 571 572 1.12 8.52651e-14 -7.199 -12.469 0 
553 573 572 1.12 8.52651e-14 7.199 -12.469 0 
554 573 574 1.12 8.52651e-14 -7.199 -12.469 0 
555 574 576 1.12 2.84217e-14 -14.398 0 0 
556 575 577 1.12 2.84217e-14 -14.398 0 0 
557 575 574 1.12 8.52651e-14 7.199 -12.469 0 
558 575 576 1.12 9.9476e-14 -7.199 -12.469 0 
559 577 576 1.12 8.52651e-14 7.199 -12.469 0 
560 577 578 1.12 8.52651e-14 -7.199 -12.469 0 
561 579 581 1.12 2.84217e-14 -14.398 0 0 
562 579 578 1.12 8.52651e-14 7.199 -12.469 0 
563 579 580 1.12 8.52651e-14 -7.199 -12.469 0 
564 581 580 1.12 9.9476e-14 7.199 -12.469 0 
565 581 582 1.12 7.10543e-14 -7.199 -12.469 0 
566 582 584 1.12 4.26326e-14 -14.398 0 0 
567 583 582 1.12 9.9476e-14 7.199 -12.469 0 
568 583 584 1.12 9.9476e-14 -7.199 -12.469 0 
569 585 584 1.12 7.10543e-14 7.199 -12.469 0 
570 585 586 1.12 9.9476e-14 -7.199 -12.469 0 
571 587 589 1.12 4.26326e-14 -14.398 0 0 
572 587 586 1.12 7.10543e-14 7.199 -12.469 0 
573 587 588 1.12 9.9476e-14 -7.199 -12.469 0 
574 589 588 1.12 9.9476e-14 7.199 -12.469 0 
575 589 590 1.12 7.10543e-14 -7.199 -12.469 0 
576 591 590 1.12 9.9476e-14 7.199 -12.469 0 
577 591 592 1.12 7.10543e-14 -7.199 -12.469 0 
578 592 594 1.12 4.26326e-14 -14.398 0 0 
579 593 592 1.12 9.9476e-14 7.199 -12.469 0 
580 593 594 1.12 9.9476e-14 -7.199 -12.469 0 
581 595 594 1.12 7.10543e-14 7.199 -12.469 0 
582 595 596 1.12 9.9476e-14 -7.199 -12.469 0 
583 597 596 1.12 7.10543e-14 7.199 -12.469 0 
584 597 598 1.12 9.9476e-14 -7.199 -12.469 0 
585 599 2051 1.12 4.26326e-14 -14.398 0 0 
586 599 598 1.12 7.10543e-14 7.199 -12.469 0 
587 599 600 1.12 9.9476e-14 -7.199 -12.469 0 
588 601 2150 1.12 7.10543e-14 7.199 -12.469 0 
589 601 602 1.12 4.26326e-14 -7.199 -12.469 0 
590 602 651 1.12 8.52651e-14 7.199 -12.469 0 
591 602 653 1.12 8.52651e-14 -7.199 -12.469 0 
592 603 602 1.12 4.26326e-14 7.199 -12.469 0 
593 603 604 1.12 4.26326e-14 -7.199 -12.469 0 
594 604 653 1.12 8.52651e-14 7.199 -12.469 0 
595 604 655 1.12 7.10543e-14 -7.199 -12.469 0 
596 605 604 1.12 4.26326e-14 7.199 -12.469 0 
597 605 606 1.12 4.26326e-14 -7.199 -12.469 0 
598 606 655 1.12 7.10543e-14 7.199 -12.469 0 
599 606 657 1.12 8.52651e-14 -7.199 -12.469 0 
600 607 606 1.12 4.26326e-14 7.199 -12.469 0 
601 607 608 1.12 4.26326e-14 -7.199 -12.469 0 
602 608 657 1.12 7.10543e-14 7.199 -12.469 0 
603 608 659 1.12 7.10543e-14 -7.199 -12.469 0 
604 609 608 1.12 4.26326e-14 7.199 -12.469 0 
605 609 610 1.12 4.26326e-14 -7.199 -12.469 0 
606 610 659 1.12 8.52651e-14 7.199 -12.469 0 
607 610 661 1.12 8.52651e-14 -7.199 -12.469 0 
608 611 610 1.12 2.84217e-14 7.199 -12.469 0 
609 611 612 1.12 4.26326e-14 -7.199 -12.469 0 
610 612 661 1.12 8.52651e-14 7.199 -12.469 0 
611 612 663 1.12 8.52651e-14 -7.199 -12.469 0 
612 613 612 1.12 4.26326e-14 7.199 -12.469 0 
613 613 614 1.12 2.84217e-14 -7.199 -12.469 0 
614 614 663 1.12 8.52651e-14 7.199 -12.469 0 
615 614 665 1.12 8.52651e-14 -7.199 -12.469 0 
616 615 614 1.12 4.26326e-14 7.199 -12.469 0 
617 615 616 1.12 2.84217e-14 -7.199 -12.469 0 
618 616 665 1.12 8.52651e-14 7.199 -12.469 0 
619 616 667 1.12 8.52651e-14 -7.199 -12.469 0 
620 617 616 1.12 4.26326e-14 7.199 -12.469 0 
621 617 618 1.12 4.26326e-14 -7.199 -12.469 0 
622 618 620 1.12 2.84217e-14 -14.398 0 0 
623 618 667 1.12 8.52651e-14 7.199 -12.469 0 
624 618 669 1.12 8.52651e-14 -7.199 -12.469 0 
625 619 621 1.12 2.84217e-14 -14.398 0 0 
626 619 618 1.12 4.26326e-14 7.199 -12.469 0 
627 619 620 1.12 5.68434e-14 -7.199 -12.469 0 
628 620 669 1.12 9.9476e-14 7.199 -12.469 0 
629 620 671 1.12 8.52651e-14 -7.199 -12.469 0 
630 621 620 1.12 4.26326e-14 7.199 -12.469 0 
631 621 622 1.12 4.26326e-14 -7.199 -12.469 0 
632 622 671 1.12 8.52651e-14 7.199 -12.469 0 
633 622 673 1.12 8.52651e-14 -7.199 -12.469 0 
634 623 622 1.12 4.26326e-14 7.199 -12.469 0 
635 623 624 1.12 4.26326e-14 -7.199 -12.469 0 
636 624 626 1.12 2.84217e-14 -14.398 0 0 
637 624 673 1.12 8.52651e-14 7.199 -12.469 0 
638 624 675 1.12 8.52651e-14 -7.199 -12.469 0 
639 625 627 1.12 2.84217e-14 -14.398 0 0 
640 625 624 1.12 4.26326e-14 7.199 -12.469 0 
641 625 626 1.12 5.68434e-14 -7.199 -12.469 0 
642 626 675 1.12 9.9476e-14 7.199 -12.469 0 
643 626 677 1.12 8.52651e-14 -7.199 -12.469 0 
644 627 626 1.12 4.26326e-14 7.199 -12.469 0 
645 627 628 1.12 4.26326e-14 -7.199 -12.469 0 
646 628 677 1.12 8.52651e-14 7.199 -12.469 0 
647 628 679 1.12 8.52651e-14 -7.199 -12.469 0 
648 629 631 1.12 2.84217e-14 -14.398 0 0 
649 629 628 1.12 4.26326e-14 7.199 -12.469 0 
650 629 630 1.12 4.26326e-14 -7.199 -12.469 0 
651 630 679 1.12 8.52651e-14 7.199 -12.469 0 
652 630 681 1.12 9.9476e-14 -7.199 -12.469 0 
653 631 630 1.12 5.68434e-14 7.199 -12.469 0 
654 631 632 1.12 2.84217e-14 -7.199 -12.469 0 
655 632 634 1.12 4.26326e-14 -14.398 0 0 
656 632 681 1.12 7.10543e-14 7.199 -12.469 0 
657 632 683 1.12 9.9476e-14 -7.199 -12.469 0 
658 633 632 1.12 5.68434e-14 7.199 -12.469 0 
659 633 634 1.12 5.68434e-14 -7.199 -12.469 0 
660 634 683 1.12 9.9476e-14 7.199 -12.469 0 
661 634 685 1.12 7.10543e-14 -7.199 -12.469 0 
662 635 634 1.12 2.84217e-14 7.199 -12.469 0 
663 635 636 1.12 5.68434e-14 -7.199 -12.469 0 
664 636 685 1.12 9.9476e-14 7.199 -12.469 0 
665 636 687 1.12 7.10543e-14 -7.199 -12.469 0 
666 637 639 1.12 4.26326e-14 -14.398 0 0 
667 637 636 1.12 2.84217e-14 7.199 -12.469 0 
668 637 638 1.12 5.68434e-14 -7.199 -12.469 0 
669 638 687 1.12 9.9476e-14 7.199 -12.469 0 
670 638 689 1.12 9.9476e-14 -7.199 -12.469 0 
671 639 638 1.12 5.68434e-14 7.199 -12.469 0 
672 639 640 1.12 2.84217e-14 -7.199 -12.469 0 
673 640 689 1.12 7.10543e-14 7.199 -12.469 0 
674 640 691 1.12 9.9476e-14 -7.199 -12.469 0 
675 641 640 1.12 5.68434e-14 7.199 -12.469 0 
676 641 642 1.12 2.84217e-14 -7.199 -12.469 0 
677 642 644 1.12 4.26326e-14 -14.398 0 0 
678 642 691 1.12 7.10543e-14 7.199 -12.469 0 
679 642 693 1.12 9.9476e-14 -7.199 -12.469 0 
680 643 642 1.12 5.68434e-14 7.199 -12.469 0 
681 643 644 1.12 5.68434e-14 -7.199 -12.469 0 
682 644 693 1.12 9.9476e-14 7.199 -12.469 0 
683 644 695 1.12 7.10543e-14 -7.199 -12.469 0 
684 645 644 1.12 2.84217e-14 7.199 -12.469 0 
685 645 646 1.12 5.68434e-14 -7.199 -12.469 0 
686 646 695 1.12 9.9476e-14 7.199 -12.469 0 
687 646 697 1.12 7.10543e-14 -7.199 -12.469 0 
688 647 646 1.12 2.84217e-14 7.199 -12.469 0 