LAMMPS (10 Mar 2021)
#uniaxial tensile test of graphene
variable 	 a equal  1
variable 	 c equal  2/(sqrt(3)*($a^2))
variable 	 c equal  2/(sqrt(3)*(1^2))

##---------------INITIALIZATION-------------------------------

units          metal
dimension 	    2
boundary       p p p
atom_style 	atomic
newton 		on


##---------------ATOM DEFINITION------------------------------

lattice hex $c origin 0 0 0
lattice hex 1.15470053837925 origin 0 0 0
Lattice spacing in x,y,z = 1.1547005 2.0000000 1.1547005
region whole block 0 10 0 10 -.5 .5
create_box 1 whole
Created orthogonal box = (0.0000000 0.0000000 -0.57735027) to (11.547005 20.000000 0.57735027)
  2 by 2 by 1 MPI processor grid
create_atoms 1 region whole
Created 200 atoms
  create_atoms CPU = 0.002 seconds


##---------------FORCE FIELDS---------------------------------

mass	      * 1.0
pair_style    mie/cut 1.25
pair_coeff    * * 1.0 1 12 6


##---------------SETTINGS-------------------------------------

timestep 	0.0005
variable   ts equal 0.0005


##---------------COMPUTES-------------------------------------

compute 	1 all stress/atom NULL
compute    2 all reduce sum c_1[1] c_1[2]


variable   Lx equal lx
variable   Ly equal ly
variable   Lz equal lz
variable   Vol equal vol
variable   thickn equal 3.4
fix 1 all nve
#fix		1 all npt temp 0 1e-20 0.05 x 0 0 0.5 y 0 0 0.5
thermo 	2000
##---------------RELAXATION--------------------------------------

run            50000
Neighbor list info ...
  update every 1 steps, delay 10 steps, check yes
  max neighbors/atom: 2000, page size: 100000
  master list distance cutoff = 3.25
  ghost atom cutoff = 3.25
  binsize = 1.625, bins = 8 13 1
  1 neighbor lists, perpetual/occasional/extra = 1 0 0
  (1) pair mie/cut, perpetual
      attributes: half, newton on
      pair build: half/bin/atomonly/newton
      stencil: half/bin/2d/newton
      bin: standard
Per MPI rank memory allocation (min/avg/max) = 3.798 | 3.798 | 3.798 Mbytes
Step Temp E_pair E_mol TotEng Press 
       0            0   -585.35156            0   -585.35156   -3292663.2 
    2000 1.8964899e-22   -585.35156            0   -585.35156   -3292663.2 
    4000 3.890676e-22   -585.35156            0   -585.35156   -3292663.2 
    6000 6.3227657e-22   -585.35156            0   -585.35156   -3292663.2 
    8000 8.6814616e-22   -585.35156            0   -585.35156   -3292663.2 
   10000 1.0877324e-21   -585.35156            0   -585.35156   -3292663.2 
   12000 1.2373138e-21   -585.35156            0   -585.35156   -3292663.2 
   14000 1.6755924e-21   -585.35156            0   -585.35156   -3292663.2 
   16000 1.7969175e-21   -585.35156            0   -585.35156   -3292663.2 
   18000 2.1851031e-21   -585.35156            0   -585.35156   -3292663.2 
   20000 2.5161736e-21   -585.35156            0   -585.35156   -3292663.2 
   22000 2.2477576e-21   -585.35156            0   -585.35156   -3292663.2 
   24000 2.5447607e-21   -585.35156            0   -585.35156   -3292663.2 
   26000 2.8235075e-21   -585.35156            0   -585.35156   -3292663.2 
   28000 3.2312492e-21   -585.35156            0   -585.35156   -3292663.2 
   30000 3.1805555e-21   -585.35156            0   -585.35156   -3292663.2 
   32000 3.533844e-21   -585.35156            0   -585.35156   -3292663.2 
   34000 3.7405289e-21   -585.35156            0   -585.35156   -3292663.2 
   36000 3.492483e-21   -585.35156            0   -585.35156   -3292663.2 
   38000 4.0981825e-21   -585.35156            0   -585.35156   -3292663.2 
   40000 3.8141809e-21   -585.35156            0   -585.35156   -3292663.2 
   42000 4.4682232e-21   -585.35156            0   -585.35156   -3292663.2 
   44000 4.2828812e-21   -585.35156            0   -585.35156   -3292663.2 
   46000 4.4653899e-21   -585.35156            0   -585.35156   -3292663.2 
   48000 5.0439881e-21   -585.35156            0   -585.35156   -3292663.2 
   50000 5.0942123e-21   -585.35156            0   -585.35156   -3292663.2 
Loop time of 32.4381 on 4 procs for 50000 steps with 200 atoms

Performance: 66.588 ns/day, 0.360 hours/ns, 1541.400 timesteps/s
98.7% CPU use with 4 MPI tasks x no OpenMP threads

MPI task timing breakdown:
Section |  min time  |  avg time  |  max time  |%varavg| %total
---------------------------------------------------------------
Pair    | 19.145     | 21.498     | 23.933     |  49.0 | 66.28
Neigh   | 0          | 0          | 0          |   0.0 |  0.00
Comm    | 8.3671     | 10.794     | 13.141     |  68.7 | 33.28
Output  | 0.00082469 | 0.00087148 | 0.00099921 |   0.0 |  0.00
Modify  | 0.025958   | 0.029431   | 0.031516   |   1.2 |  0.09
Other   |            | 0.1152     |            |       |  0.36

Nlocal:        50.0000 ave          55 max          45 min
Histogram: 2 0 0 0 0 0 0 0 0 2
Nghost:        129.000 ave         134 max         124 min
Histogram: 2 0 0 0 0 0 0 0 0 2
Neighs:        750.000 ave         828 max         674 min
Histogram: 2 0 0 0 0 0 0 0 0 2

Total # of neighbors = 3000
Ave neighs/atom = 15.000000
Neighbor list builds = 0
Dangerous builds = 0


##---------------DEFORMATION--------------------------------------
unfix              1
reset_timestep     0
fix		1 all npt temp 1e-20 1e-20 0.05 x 0 0 0.5
fix        2 all ave/time 1 100 100 c_2[1] c_2[2]
fix        3 all ave/time 1 100 100 v_Lx v_Ly v_Lz v_Vol
variable   srate equal 1.0e9
variable   srate1 equal "-v_srate / 1.0e12"
fix		4 all deform 1 y erate ${srate1} units box remap x
fix		4 all deform 1 y erate -0.001 units box remap x
run            100
Per MPI rank memory allocation (min/avg/max) = 3.798 | 3.798 | 3.798 Mbytes
Step Temp E_pair E_mol TotEng Press Volume 
       0 5.0942123e-21   -585.35156            0   -585.35156   -3292663.2    230.94011 
ERROR: Non-numeric pressure - simulation unstable (../fix_nh.cpp:1062)
Last command: run            100
