ITEM: TIMESTEP
5000
ITEM: NUMBER OF ATOMS
200
ITEM: BOX BOUNDS pp pp pp
1.9963443488338495e-01 1.1347370948909191e+01
2.4998774999999973e-02 1.9975001224999971e+01
-5.7735026918962495e-01 5.7735026918962495e-01
ITEM: ATOMS id type xs ys zs
2 1 0.0499364 0.049958 0.5
4 1 0.149936 0.049958 0.5
1 1 -6.36097e-05 -4.20293e-05 0.5
6 1 0.249936 0.049958 0.5
8 1 0.349936 0.049958 0.5
10 1 0.449936 0.049958 0.5
12 1 0.0499364 0.149958 0.5
13 1 0.0999364 0.099958 0.5
14 1 0.149936 0.149958 0.5
11 1 -6.36293e-05 0.099958 0.5
15 1 0.199936 0.099958 0.5
16 1 0.249936 0.149958 0.5
17 1 0.299936 0.099958 0.5
18 1 0.349936 0.149958 0.5
19 1 0.399936 0.099958 0.5
20 1 0.449936 0.149958 0.5
111 1 0.499936 0.099958 0.5
22 1 0.0499364 0.249958 0.5
23 1 0.0999364 0.199958 0.5
21 1 -6.36218e-05 0.199958 0.5
25 1 0.199936 0.199958 0.5
26 1 0.249936 0.249958 0.5
27 1 0.299936 0.199958 0.5
28 1 0.349936 0.249958 0.5
29 1 0.399936 0.199958 0.5
30 1 0.449936 0.249958 0.5
121 1 0.499936 0.199958 0.5
24 1 0.149936 0.249958 0.5
33 1 0.0999364 0.299958 0.5
35 1 0.199936 0.299958 0.5
37 1 0.299936 0.299958 0.5
131 1 0.499936 0.299958 0.5
39 1 0.399936 0.299958 0.5
32 1 0.0499364 0.349958 0.5
34 1 0.149936 0.349958 0.5
43 1 0.0999364 0.399958 0.5
41 1 -6.36106e-05 0.399958 0.5
36 1 0.249936 0.349958 0.5
45 1 0.199936 0.399958 0.5
47 1 0.299936 0.399958 0.5
141 1 0.499936 0.399958 0.5
38 1 0.349936 0.349958 0.5
40 1 0.449936 0.349958 0.5
49 1 0.399936 0.399958 0.5
42 1 0.0499364 0.449958 0.5
44 1 0.149936 0.449958 0.5
52 1 0.0999364 0.499958 0.5
53 1 0.199936 0.499958 0.5
46 1 0.249936 0.449958 0.5
48 1 0.349936 0.449958 0.5
50 1 0.449936 0.449958 0.5
55 1 0.399936 0.499958 0.5
56 1 0.0499364 0.549958 0.5
57 1 0.149936 0.549958 0.5
58 1 0.249936 0.549958 0.5
54 1 0.299936 0.499958 0.5
59 1 0.349936 0.549958 0.5
60 1 0.449936 0.549958 0.5
62 1 0.0499364 0.649958 0.5
63 1 0.0999364 0.599958 0.5
64 1 0.149936 0.649958 0.5
61 1 -6.36078e-05 0.599958 0.5
65 1 0.199936 0.599958 0.5
66 1 0.249936 0.649958 0.5
67 1 0.299936 0.599958 0.5
68 1 0.349936 0.649958 0.5
69 1 0.399936 0.599958 0.5
70 1 0.449936 0.649958 0.5
161 1 0.499936 0.599958 0.5
72 1 0.0499364 0.749958 0.5
73 1 0.0999364 0.699958 0.5
74 1 0.149936 0.749958 0.5
75 1 0.199936 0.699958 0.5
76 1 0.249936 0.749958 0.5
77 1 0.299936 0.699958 0.5
78 1 0.349936 0.749958 0.5
79 1 0.399936 0.699958 0.5
80 1 0.449936 0.749958 0.5
171 1 0.499936 0.699958 0.5
81 1 -6.36172e-05 0.799958 0.5
83 1 0.0999364 0.799958 0.5
85 1 0.199936 0.799958 0.5
87 1 0.299936 0.799958 0.5
89 1 0.399936 0.799958 0.5
82 1 0.0499364 0.849958 0.5
84 1 0.149936 0.849958 0.5
93 1 0.0999364 0.899958 0.5
86 1 0.249936 0.849958 0.5
95 1 0.199936 0.899958 0.5
97 1 0.299936 0.899958 0.5
88 1 0.349936 0.849958 0.5
90 1 0.449936 0.849958 0.5
99 1 0.399936 0.899958 0.5
191 1 0.499936 0.899958 0.5
92 1 0.0499364 0.949958 0.5
94 1 0.149936 0.949958 0.5
3 1 0.0999364 0.999958 0.5
96 1 0.249936 0.949958 0.5
5 1 0.199936 0.999958 0.5
7 1 0.299936 0.999958 0.5
9 1 0.399936 0.999958 0.5
100 1 0.449936 0.949958 0.5
98 1 0.349936 0.949958 0.5
102 1 0.549936 0.049958 0.5
104 1 0.649936 0.049958 0.5
106 1 0.749936 0.049958 0.5
108 1 0.849936 0.049958 0.5
110 1 0.949936 0.049958 0.5
112 1 0.549936 0.149958 0.5
113 1 0.599936 0.099958 0.5
114 1 0.649936 0.149958 0.5
115 1 0.699936 0.099958 0.5
116 1 0.749936 0.149958 0.5
117 1 0.799936 0.099958 0.5
118 1 0.849936 0.149958 0.5
119 1 0.899936 0.099958 0.5
120 1 0.949936 0.149958 0.5
122 1 0.549936 0.249958 0.5
123 1 0.599936 0.199958 0.5
124 1 0.649936 0.249958 0.5
125 1 0.699936 0.199958 0.5
127 1 0.799936 0.199958 0.5
126 1 0.749936 0.249958 0.5
128 1 0.849936 0.249958 0.5
129 1 0.899936 0.199958 0.5
130 1 0.949936 0.249958 0.5
133 1 0.599936 0.299958 0.5
135 1 0.699936 0.299958 0.5
137 1 0.799936 0.299958 0.5
139 1 0.899936 0.299958 0.5
31 1 0.999936 0.299958 0.5
132 1 0.549936 0.349958 0.5
134 1 0.649936 0.349958 0.5
143 1 0.599936 0.399958 0.5
136 1 0.749936 0.349958 0.5
145 1 0.699936 0.399958 0.5
147 1 0.799936 0.399958 0.5
138 1 0.849936 0.349958 0.5
140 1 0.949936 0.349958 0.5
149 1 0.899936 0.399958 0.5
151 1 0.499936 0.499958 0.5
142 1 0.549936 0.449958 0.5
144 1 0.649936 0.449958 0.5
152 1 0.599936 0.499958 0.5
146 1 0.749936 0.449958 0.5
154 1 0.799936 0.499958 0.5
148 1 0.849936 0.449958 0.5
150 1 0.949936 0.449958 0.5
155 1 0.899936 0.499958 0.5
51 1 0.999936 0.499958 0.5
156 1 0.549936 0.549958 0.5
157 1 0.649936 0.549958 0.5
158 1 0.749936 0.549958 0.5
153 1 0.699936 0.499958 0.5
159 1 0.849936 0.549958 0.5
160 1 0.949936 0.549958 0.5
162 1 0.549936 0.649958 0.5
163 1 0.599936 0.599958 0.5
164 1 0.649936 0.649958 0.5
165 1 0.699936 0.599958 0.5
166 1 0.749936 0.649958 0.5
167 1 0.799936 0.599958 0.5
168 1 0.849936 0.649958 0.5
169 1 0.899936 0.599958 0.5
170 1 0.949936 0.649958 0.5
172 1 0.549936 0.749958 0.5
173 1 0.599936 0.699958 0.5
174 1 0.649936 0.749958 0.5
175 1 0.699936 0.699958 0.5
176 1 0.749936 0.749958 0.5
177 1 0.799936 0.699958 0.5
178 1 0.849936 0.749958 0.5
179 1 0.899936 0.699958 0.5
180 1 0.949936 0.749958 0.5
71 1 0.999936 0.699958 0.5
181 1 0.499936 0.799958 0.5
183 1 0.599936 0.799958 0.5
185 1 0.699936 0.799958 0.5
187 1 0.799936 0.799958 0.5
189 1 0.899936 0.799958 0.5
182 1 0.549936 0.849958 0.5
184 1 0.649936 0.849958 0.5
193 1 0.599936 0.899958 0.5
186 1 0.749936 0.849958 0.5
195 1 0.699936 0.899958 0.5
197 1 0.799936 0.899958 0.5
188 1 0.849936 0.849958 0.5
190 1 0.949936 0.849958 0.5
199 1 0.899936 0.899958 0.5
91 1 0.999936 0.899958 0.5
192 1 0.549936 0.949958 0.5
194 1 0.649936 0.949958 0.5
101 1 0.499936 0.999958 0.5
103 1 0.599936 0.999958 0.5
196 1 0.749936 0.949958 0.5
107 1 0.799936 0.999958 0.5
105 1 0.699936 0.999958 0.5
109 1 0.899936 0.999958 0.5
198 1 0.849936 0.949958 0.5
200 1 0.949936 0.949958 0.5
ITEM: TIMESTEP
10000
ITEM: NUMBER OF ATOMS
200
ITEM: BOX BOUNDS pp pp pp
2.0307751954210751e-01 1.1343927864250400e+01
4.9997524999999945e-02 1.9950002474999973e+01
-5.7735026918962495e-01 5.7735026918962495e-01
ITEM: ATOMS id type xs ys zs
114 1 0.0263347 0.412066 0.5
118 1 0.226335 0.412066 0.5
117 1 0.176334 0.362066 0.5
183 1 -0.0236651 0.0620662 0.5
12 1 0.426335 0.412066 0.5
92 1 0.426335 0.212067 0.5
11 1 0.376334 0.362066 0.5
107 1 0.176335 0.262066 0.5
196 1 0.126335 0.212066 0.5
195 1 0.0763349 0.162066 0.5
106 1 0.126334 0.312066 0.5
193 1 -0.0236657 0.162067 0.5
185 1 0.0763344 0.062066 0.5
2 1 0.426335 0.312066 0.5
200 1 0.326334 0.212066 0.5
119 1 0.276334 0.362066 0.5
109 1 0.276335 0.262066 0.5
72 1 0.426335 0.0120665 0.5
194 1 0.0263343 0.212066 0.5
176 1 0.126335 0.0120662 0.5
184 1 0.0263342 0.112066 0.5
186 1 0.126335 0.112066 0.5
187 1 0.176335 0.0620662 0.5
197 1 0.176334 0.162066 0.5
1 1 0.376334 0.262066 0.5
104 1 0.0263347 0.312066 0.5
198 1 0.226335 0.212066 0.5
116 1 0.126334 0.412066 0.5
91 1 0.376335 0.162066 0.5
105 1 0.0763343 0.262066 0.5
174 1 0.026335 0.0120663 0.5
103 1 -0.0236651 0.262066 0.5
110 1 0.326335 0.312066 0.5
120 1 0.326335 0.412066 0.5
180 1 0.326334 0.0120662 0.5
190 1 0.326335 0.112066 0.5
81 1 0.376335 0.0620663 0.5
115 1 0.0763345 0.362066 0.5
82 1 0.426334 0.112066 0.5
113 1 -0.0236651 0.362066 0.5
189 1 0.276334 0.0620662 0.5
178 1 0.226335 0.0120661 0.5
188 1 0.226335 0.112066 0.5
108 1 0.226334 0.312066 0.5
199 1 0.276334 0.162066 0.5
123 1 -0.0236655 0.462066 0.5
21 1 0.376335 0.462066 0.5
125 1 0.0763341 0.462066 0.5
129 1 0.276334 0.462066 0.5
127 1 0.176334 0.462066 0.5
164 1 0.0263344 0.912066 0.5
168 1 0.226335 0.912066 0.5
167 1 0.176335 0.862066 0.5
133 1 -0.0236659 0.562066 0.5
62 1 0.426335 0.912066 0.5
42 1 0.426334 0.712066 0.5
61 1 0.376335 0.862066 0.5
154 1 0.176335 0.762066 0.5
146 1 0.126335 0.712066 0.5
145 1 0.0763346 0.662066 0.5
158 1 0.126335 0.812066 0.5
143 1 -0.0236655 0.662066 0.5
135 1 0.0763345 0.562066 0.5
56 1 0.426335 0.812066 0.5
150 1 0.326335 0.712066 0.5
169 1 0.276334 0.862066 0.5
155 1 0.276334 0.762066 0.5
22 1 0.426335 0.512067 0.5
144 1 0.0263347 0.712066 0.5
126 1 0.126335 0.512066 0.5
134 1 0.0263351 0.612066 0.5
136 1 0.126335 0.612066 0.5
137 1 0.176335 0.562066 0.5
147 1 0.176335 0.662066 0.5
51 1 0.376335 0.762066 0.5
157 1 0.0263346 0.812066 0.5
148 1 0.226335 0.712067 0.5
166 1 0.126335 0.912066 0.5
41 1 0.376334 0.662066 0.5
153 1 0.0763352 0.762066 0.5
124 1 0.026335 0.512066 0.5
152 1 -0.0236652 0.762066 0.5
160 1 0.326334 0.812066 0.5
170 1 0.326335 0.912066 0.5
130 1 0.326335 0.512066 0.5
140 1 0.326334 0.612066 0.5
31 1 0.376335 0.562066 0.5
165 1 0.0763344 0.862066 0.5
32 1 0.426335 0.612066 0.5
163 1 -0.0236652 0.862066 0.5
139 1 0.276335 0.562066 0.5
128 1 0.226335 0.512066 0.5
138 1 0.226334 0.612066 0.5
159 1 0.226334 0.812067 0.5
149 1 0.276335 0.662066 0.5
173 1 -0.0236657 0.962066 0.5
71 1 0.376335 0.962066 0.5
175 1 0.0763347 0.962066 0.5
179 1 0.276334 0.962066 0.5
177 1 0.176334 0.962066 0.5
14 1 0.526334 0.412066 0.5
18 1 0.726335 0.412066 0.5
17 1 0.676335 0.362066 0.5
83 1 0.476335 0.0620664 0.5
112 1 0.926335 0.412066 0.5
192 1 0.926335 0.212067 0.5
111 1 0.876335 0.362066 0.5
7 1 0.676335 0.262066 0.5
96 1 0.626335 0.212066 0.5
95 1 0.576335 0.162066 0.5
6 1 0.626335 0.312066 0.5
93 1 0.476334 0.162066 0.5
85 1 0.576334 0.0620664 0.5
102 1 0.926334 0.312066 0.5
100 1 0.826335 0.212066 0.5
19 1 0.776334 0.362066 0.5
9 1 0.776335 0.262066 0.5
172 1 0.926335 0.0120662 0.5
94 1 0.526334 0.212066 0.5
76 1 0.626334 0.0120662 0.5
84 1 0.526335 0.112066 0.5
86 1 0.626335 0.112066 0.5
87 1 0.676335 0.0620659 0.5
97 1 0.676334 0.162066 0.5
101 1 0.876334 0.262066 0.5
4 1 0.526335 0.312066 0.5
98 1 0.726335 0.212066 0.5
16 1 0.626335 0.412066 0.5
191 1 0.876335 0.162066 0.5
5 1 0.576335 0.262066 0.5
74 1 0.526335 0.0120661 0.5
3 1 0.476335 0.262066 0.5
10 1 0.826335 0.312066 0.5
20 1 0.826335 0.412066 0.5
80 1 0.826334 0.0120661 0.5
90 1 0.826335 0.112066 0.5
181 1 0.876335 0.0620662 0.5
15 1 0.576335 0.362066 0.5
182 1 0.926335 0.112066 0.5
13 1 0.476335 0.362066 0.5
89 1 0.776334 0.0620662 0.5
78 1 0.726334 0.0120662 0.5
88 1 0.726334 0.112066 0.5
8 1 0.726335 0.312066 0.5
99 1 0.776335 0.162066 0.5
23 1 0.476334 0.462066 0.5
121 1 0.876334 0.462066 0.5
25 1 0.576335 0.462066 0.5
29 1 0.776335 0.462066 0.5
27 1 0.676335 0.462066 0.5
64 1 0.526335 0.912066 0.5
68 1 0.726335 0.912066 0.5
67 1 0.676335 0.862066 0.5
33 1 0.476334 0.562066 0.5
162 1 0.926334 0.912066 0.5
142 1 0.926335 0.712066 0.5
161 1 0.876335 0.862066 0.5
54 1 0.676334 0.762066 0.5
46 1 0.626335 0.712066 0.5
45 1 0.576335 0.662066 0.5
58 1 0.626335 0.812066 0.5
43 1 0.476335 0.662066 0.5
35 1 0.576335 0.562066 0.5
156 1 0.926335 0.812066 0.5
50 1 0.826335 0.712066 0.5
69 1 0.776335 0.862066 0.5
55 1 0.776335 0.762066 0.5
122 1 0.926335 0.512066 0.5
44 1 0.526335 0.712066 0.5
26 1 0.626334 0.512066 0.5
34 1 0.526335 0.612066 0.5
36 1 0.626335 0.612066 0.5
37 1 0.676334 0.562066 0.5
47 1 0.676334 0.662066 0.5
151 1 0.876334 0.762066 0.5
57 1 0.526335 0.812066 0.5
48 1 0.726335 0.712066 0.5
66 1 0.626335 0.912067 0.5
141 1 0.876335 0.662066 0.5
53 1 0.576334 0.762066 0.5
24 1 0.526334 0.512066 0.5
52 1 0.476335 0.762066 0.5
60 1 0.826335 0.812066 0.5
70 1 0.826335 0.912066 0.5
30 1 0.826334 0.512066 0.5
40 1 0.826335 0.612066 0.5
131 1 0.876335 0.562066 0.5
65 1 0.576334 0.862066 0.5
132 1 0.926335 0.612066 0.5
63 1 0.476334 0.862066 0.5
39 1 0.776335 0.562066 0.5
28 1 0.726334 0.512066 0.5
38 1 0.726335 0.612066 0.5
59 1 0.726335 0.812066 0.5
49 1 0.776335 0.662066 0.5
73 1 0.476335 0.962066 0.5
171 1 0.876334 0.962066 0.5
75 1 0.576334 0.962066 0.5
79 1 0.776335 0.962066 0.5
77 1 0.676335 0.962066 0.5
ITEM: TIMESTEP
15000
ITEM: NUMBER OF ATOMS
200
ITEM: BOX BOUNDS pp pp pp
2.0428867703914833e-01 1.1342716706753453e+01
7.4996274999999904e-02 1.9925003724999971e+01
-5.7735026918962495e-01 5.7735026918962495e-01
ITEM: ATOMS id type xs ys zs
128 1 0.00938316 0.374231 0.5
23 1 0.259384 0.32423 0.5
130 1 0.109384 0.374231 0.5
24 1 0.309384 0.374231 0.5
37 1 0.459384 0.424231 0.5
139 1 0.0593837 0.42423 0.5
7 1 0.459384 0.12423 0.5
11 1 0.159384 0.224231 0.5
198 1 0.00938345 0.0742305 0.5
16 1 0.409384 0.27423 0.5
31 1 0.159384 0.42423 0.5
108 1 0.00938327 0.17423 0.5
17 1 0.459383 0.224231 0.5
200 1 0.109384 0.0742308 0.5
110 1 0.109384 0.174231 0.5
21 1 0.159383 0.32423 0.5
35 1 0.359384 0.424231 0.5
25 1 0.359384 0.324231 0.5
22 1 0.209384 0.374231 0.5
119 1 0.0593844 0.22423 0.5
15 1 0.359384 0.224231 0.5
199 1 0.0593836 0.0242303 0.5
91 1 0.159384 0.0242304 0.5
12 1 0.209384 0.274231 0.5
27 1 0.459384 0.32423 0.5
94 1 0.309384 0.0742304 0.5
118 1 0.00938396 0.27423 0.5
129 1 0.0593836 0.32423 0.5
120 1 0.109383 0.274231 0.5
2 1 0.209384 0.174231 0.5
13 1 0.259384 0.22423 0.5
26 1 0.409384 0.374231 0.5
93 1 0.259384 0.0242305 0.5
1 1 0.159383 0.12423 0.5
92 1 0.209384 0.0742302 0.5
14 1 0.309384 0.274231 0.5
109 1 0.0593833 0.12423 0.5
33 1 0.259384 0.42423 0.5
4 1 0.309384 0.174231 0.5
3 1 0.259384 0.124231 0.5
96 1 0.409383 0.0742302 0.5
5 1 0.359384 0.124231 0.5
97 1 0.459384 0.0242303 0.5
6 1 0.409383 0.174231 0.5
95 1 0.359383 0.0242307 0.5
34 1 0.309384 0.474231 0.5
138 1 0.00938405 0.474231 0.5
140 1 0.109384 0.47423 0.5
32 1 0.209384 0.474231 0.5
36 1 0.409384 0.47423 0.5
178 1 0.00938369 0.874231 0.5
73 1 0.259384 0.824231 0.5
180 1 0.109383 0.874231 0.5
74 1 0.309384 0.874231 0.5
87 1 0.459384 0.924231 0.5
189 1 0.0593836 0.92423 0.5
54 1 0.459384 0.624231 0.5
61 1 0.159384 0.72423 0.5
148 1 0.00938387 0.574231 0.5
66 1 0.409384 0.77423 0.5
81 1 0.159384 0.924231 0.5
159 1 0.00938364 0.67423 0.5
67 1 0.459384 0.724231 0.5
150 1 0.109384 0.57423 0.5
160 1 0.109384 0.67423 0.5
71 1 0.159384 0.824231 0.5
85 1 0.359384 0.924231 0.5
75 1 0.359384 0.824231 0.5
72 1 0.209384 0.874231 0.5
169 1 0.0593842 0.72423 0.5
65 1 0.359384 0.72423 0.5
149 1 0.0593843 0.524231 0.5
41 1 0.159383 0.524231 0.5
62 1 0.209384 0.77423 0.5
77 1 0.459384 0.82423 0.5
44 1 0.309384 0.57423 0.5
168 1 0.0093847 0.774231 0.5
179 1 0.0593835 0.82423 0.5
170 1 0.109383 0.774231 0.5
56 1 0.209384 0.674231 0.5
63 1 0.259384 0.724231 0.5
76 1 0.409384 0.874231 0.5
43 1 0.259384 0.52423 0.5
51 1 0.159384 0.624231 0.5
42 1 0.209383 0.574231 0.5
64 1 0.309384 0.774231 0.5
155 1 0.0593832 0.62423 0.5
83 1 0.259384 0.92423 0.5
57 1 0.309383 0.674231 0.5
52 1 0.259384 0.624231 0.5
46 1 0.409384 0.57423 0.5
53 1 0.359384 0.62423 0.5
47 1 0.459384 0.52423 0.5
58 1 0.409384 0.674231 0.5
45 1 0.359383 0.52423 0.5
84 1 0.309384 0.974231 0.5
188 1 0.00938395 0.974231 0.5
190 1 0.109384 0.974231 0.5
82 1 0.209384 0.97423 0.5
86 1 0.409384 0.97423 0.5
28 1 0.509384 0.37423 0.5
123 1 0.759384 0.324231 0.5
30 1 0.609384 0.374231 0.5
124 1 0.809384 0.37423 0.5
137 1 0.959384 0.424231 0.5
39 1 0.559384 0.42423 0.5
107 1 0.959384 0.124231 0.5
111 1 0.659384 0.22423 0.5
98 1 0.509384 0.0742306 0.5
116 1 0.909384 0.27423 0.5
131 1 0.659384 0.42423 0.5
8 1 0.509384 0.174231 0.5
117 1 0.959384 0.224231 0.5
100 1 0.609383 0.074231 0.5
10 1 0.609384 0.174231 0.5
121 1 0.659384 0.324231 0.5
135 1 0.859384 0.424231 0.5
125 1 0.859383 0.324231 0.5
122 1 0.709383 0.37423 0.5
19 1 0.559384 0.22423 0.5
115 1 0.859384 0.224231 0.5
99 1 0.559384 0.0242305 0.5
191 1 0.659384 0.0242304 0.5
112 1 0.709383 0.274231 0.5
127 1 0.959384 0.324231 0.5
194 1 0.809384 0.0742306 0.5
18 1 0.509384 0.274231 0.5
29 1 0.559384 0.32423 0.5
20 1 0.609383 0.274231 0.5
102 1 0.709384 0.174231 0.5
113 1 0.759384 0.224231 0.5
126 1 0.909384 0.374231 0.5
193 1 0.759383 0.0242302 0.5
101 1 0.659384 0.12423 0.5
192 1 0.709384 0.0742305 0.5
114 1 0.809383 0.274231 0.5
9 1 0.559384 0.124231 0.5
133 1 0.759384 0.42423 0.5
104 1 0.809384 0.17423 0.5
103 1 0.759384 0.12423 0.5
196 1 0.909384 0.0742302 0.5
105 1 0.859383 0.12423 0.5
197 1 0.959384 0.0242305 0.5
106 1 0.909384 0.174231 0.5
195 1 0.859384 0.0242305 0.5
134 1 0.809383 0.474231 0.5
38 1 0.509384 0.474231 0.5
40 1 0.609384 0.474231 0.5
132 1 0.709384 0.47423 0.5
136 1 0.909384 0.474231 0.5
78 1 0.509384 0.874231 0.5
173 1 0.759384 0.824231 0.5
80 1 0.609384 0.87423 0.5
174 1 0.809383 0.874231 0.5
187 1 0.959384 0.92423 0.5
89 1 0.559383 0.92423 0.5
154 1 0.959384 0.624231 0.5
161 1 0.659384 0.724231 0.5
48 1 0.509383 0.57423 0.5
166 1 0.909384 0.77423 0.5
181 1 0.659384 0.92423 0.5
59 1 0.509383 0.674231 0.5
167 1 0.959383 0.724231 0.5
50 1 0.609384 0.574231 0.5
60 1 0.609383 0.67423 0.5
171 1 0.659384 0.824231 0.5
185 1 0.859384 0.92423 0.5
175 1 0.859384 0.82423 0.5
172 1 0.709384 0.87423 0.5
69 1 0.559384 0.72423 0.5
165 1 0.859384 0.72423 0.5
49 1 0.559384 0.52423 0.5
141 1 0.659384 0.524231 0.5
162 1 0.709384 0.77423 0.5
177 1 0.959384 0.824231 0.5
144 1 0.809384 0.574231 0.5
68 1 0.509384 0.774231 0.5
79 1 0.559384 0.82423 0.5
70 1 0.609384 0.77423 0.5
156 1 0.709384 0.674231 0.5
163 1 0.759383 0.72423 0.5
176 1 0.909383 0.87423 0.5
143 1 0.759384 0.524231 0.5
151 1 0.659384 0.62423 0.5
142 1 0.709383 0.57423 0.5
164 1 0.809383 0.774231 0.5
55 1 0.559383 0.62423 0.5
183 1 0.759384 0.924231 0.5
157 1 0.809384 0.674231 0.5
152 1 0.759384 0.62423 0.5
146 1 0.909384 0.57423 0.5
153 1 0.859384 0.62423 0.5
147 1 0.959384 0.524231 0.5
158 1 0.909384 0.67423 0.5
145 1 0.859383 0.524231 0.5
184 1 0.809383 0.974231 0.5
88 1 0.509384 0.97423 0.5
90 1 0.609384 0.974231 0.5
182 1 0.709384 0.974231 0.5
186 1 0.909384 0.97423 0.5
ITEM: TIMESTEP
20000
ITEM: NUMBER OF ATOMS
200
ITEM: BOX BOUNDS pp pp pp
1.8998658840980021e-01 1.1357018795382926e+01
9.9995024999999890e-02 1.9900004974999973e+01
-5.7735026918962495e-01 5.7735026918962495e-01
ITEM: ATOMS id type xs ys zs
38 1 0.285025 0.323573 0.5
12 1 -0.0149753 0.123572 0.5
46 1 0.185025 0.423573 0.5
50 1 0.385024 0.423572 0.5
141 1 0.435025 0.373573 0.5
13 1 0.0350244 0.0735726 0.5
25 1 0.135025 0.173572 0.5
131 1 0.435025 0.273573 0.5
29 1 0.335025 0.173573 0.5
15 1 0.135025 0.0735725 0.5
47 1 0.235025 0.373572 0.5
23 1 0.035025 0.173573 0.5
4 1 0.0850247 0.0235724 0.5
40 1 0.385025 0.323572 0.5
14 1 0.0850246 0.123573 0.5
16 1 0.185025 0.123572 0.5
35 1 0.135026 0.273573 0.5
2 1 -0.0149754 0.0235728 0.5
48 1 0.285025 0.423573 0.5
36 1 0.185025 0.323573 0.5
24 1 0.0850245 0.223572 0.5
121 1 0.435025 0.173572 0.5
111 1 0.435025 0.0735724 0.5
39 1 0.335024 0.273573 0.5
8 1 0.285025 0.0235724 0.5
34 1 0.085025 0.323572 0.5
30 1 0.385025 0.223572 0.5
45 1 0.135024 0.373573 0.5
22 1 -0.014975 0.223572 0.5
33 1 0.0350248 0.273573 0.5
42 1 -0.0149757 0.423572 0.5
26 1 0.185025 0.223572 0.5
32 1 -0.0149747 0.323573 0.5
6 1 0.185025 0.0235726 0.5
49 1 0.335025 0.373573 0.5
10 1 0.385025 0.0235723 0.5
19 1 0.335025 0.0735727 0.5
43 1 0.0350251 0.373573 0.5
28 1 0.285025 0.223573 0.5
44 1 0.0850245 0.423573 0.5
17 1 0.235025 0.0735727 0.5
18 1 0.285025 0.123572 0.5
37 1 0.235024 0.273573 0.5
27 1 0.235025 0.173573 0.5
20 1 0.385024 0.123573 0.5
55 1 0.335024 0.473573 0.5
52 1 0.035025 0.473572 0.5
53 1 0.135025 0.473573 0.5
54 1 0.235024 0.473572 0.5
151 1 0.435024 0.473573 0.5
88 1 0.285025 0.823573 0.5
62 1 -0.0149758 0.623573 0.5
96 1 0.185025 0.923573 0.5
100 1 0.385024 0.923573 0.5
191 1 0.435024 0.873572 0.5
63 1 0.0350246 0.573572 0.5
75 1 0.135024 0.673573 0.5
181 1 0.435025 0.773573 0.5
79 1 0.335025 0.673573 0.5
65 1 0.135024 0.573573 0.5
97 1 0.235025 0.873572 0.5
73 1 0.035025 0.673573 0.5
57 1 0.0850248 0.523572 0.5
90 1 0.385025 0.823572 0.5
64 1 0.0850246 0.623572 0.5
66 1 0.185025 0.623573 0.5
85 1 0.135025 0.773573 0.5
56 1 -0.0149756 0.523572 0.5
98 1 0.285025 0.923573 0.5
86 1 0.185025 0.823573 0.5
74 1 0.0850251 0.723572 0.5
171 1 0.435025 0.673573 0.5
161 1 0.435025 0.573573 0.5
89 1 0.335025 0.773572 0.5
59 1 0.285024 0.523572 0.5
84 1 0.0850248 0.823573 0.5
80 1 0.385025 0.723572 0.5
95 1 0.135025 0.873572 0.5
72 1 -0.0149754 0.723572 0.5
83 1 0.0350252 0.773573 0.5
92 1 -0.0149751 0.923573 0.5
76 1 0.185024 0.723573 0.5
82 1 -0.0149757 0.823573 0.5
58 1 0.185024 0.523573 0.5
99 1 0.335025 0.873573 0.5
60 1 0.385025 0.523572 0.5
69 1 0.335025 0.573573 0.5
93 1 0.0350245 0.873573 0.5
78 1 0.285024 0.723573 0.5
94 1 0.0850249 0.923573 0.5
67 1 0.235025 0.573573 0.5
68 1 0.285024 0.623573 0.5
87 1 0.235025 0.773572 0.5
77 1 0.235025 0.673572 0.5
70 1 0.385025 0.623572 0.5
9 1 0.335024 0.973572 0.5
3 1 0.0350249 0.973573 0.5
5 1 0.135025 0.973572 0.5
7 1 0.235024 0.973572 0.5
101 1 0.435025 0.973573 0.5
138 1 0.785025 0.323573 0.5
112 1 0.485024 0.123572 0.5
146 1 0.685024 0.423573 0.5
150 1 0.885024 0.423573 0.5
41 1 0.935025 0.373573 0.5
113 1 0.535025 0.0735723 0.5
125 1 0.635024 0.173572 0.5
31 1 0.935025 0.273573 0.5
129 1 0.835025 0.173573 0.5
115 1 0.635025 0.0735727 0.5
147 1 0.735025 0.373573 0.5
123 1 0.535025 0.173572 0.5
104 1 0.585025 0.0235725 0.5
140 1 0.885024 0.323572 0.5
114 1 0.585025 0.123573 0.5
116 1 0.685025 0.123572 0.5
135 1 0.635025 0.273572 0.5
102 1 0.485024 0.0235725 0.5
148 1 0.785025 0.423573 0.5
136 1 0.685024 0.323573 0.5
124 1 0.585025 0.223573 0.5
21 1 0.935025 0.173573 0.5
11 1 0.935025 0.0735723 0.5
139 1 0.835024 0.273573 0.5
108 1 0.785025 0.0235726 0.5
134 1 0.585024 0.323573 0.5
130 1 0.885025 0.223573 0.5
145 1 0.635025 0.373572 0.5
122 1 0.485025 0.223573 0.5
133 1 0.535025 0.273573 0.5
142 1 0.485025 0.423573 0.5
126 1 0.685025 0.223572 0.5
132 1 0.485025 0.323573 0.5
106 1 0.685025 0.0235726 0.5
149 1 0.835025 0.373573 0.5
110 1 0.885025 0.0235724 0.5
119 1 0.835025 0.0735726 0.5
143 1 0.535024 0.373572 0.5
128 1 0.785024 0.223572 0.5
144 1 0.585025 0.423572 0.5
117 1 0.735025 0.0735729 0.5
118 1 0.785025 0.123573 0.5
137 1 0.735025 0.273573 0.5
127 1 0.735025 0.173572 0.5
120 1 0.885025 0.123573 0.5
155 1 0.835025 0.473573 0.5
152 1 0.535024 0.473573 0.5
153 1 0.635025 0.473572 0.5
154 1 0.735025 0.473573 0.5
51 1 0.935024 0.473572 0.5
188 1 0.785025 0.823572 0.5
162 1 0.485024 0.623572 0.5
196 1 0.685025 0.923573 0.5
200 1 0.885025 0.923573 0.5
91 1 0.935025 0.873573 0.5
163 1 0.535025 0.573573 0.5
175 1 0.635024 0.673572 0.5
81 1 0.935024 0.773573 0.5
179 1 0.835024 0.673573 0.5
165 1 0.635025 0.573573 0.5
197 1 0.735025 0.873573 0.5
173 1 0.535025 0.673573 0.5
157 1 0.585025 0.523573 0.5
190 1 0.885025 0.823572 0.5
164 1 0.585025 0.623572 0.5
166 1 0.685025 0.623572 0.5
185 1 0.635025 0.773573 0.5
156 1 0.485025 0.523573 0.5
198 1 0.785025 0.923572 0.5
186 1 0.685025 0.823572 0.5
174 1 0.585025 0.723572 0.5
71 1 0.935025 0.673573 0.5
61 1 0.935025 0.573573 0.5
189 1 0.835024 0.773573 0.5
159 1 0.785025 0.523573 0.5
184 1 0.585025 0.823572 0.5
180 1 0.885025 0.723572 0.5
195 1 0.635025 0.873572 0.5
172 1 0.485025 0.723572 0.5
183 1 0.535025 0.773573 0.5
192 1 0.485025 0.923573 0.5
176 1 0.685025 0.723573 0.5
182 1 0.485025 0.823573 0.5
158 1 0.685025 0.523573 0.5
199 1 0.835025 0.873573 0.5
160 1 0.885024 0.523572 0.5
169 1 0.835025 0.573573 0.5
193 1 0.535025 0.873573 0.5
178 1 0.785025 0.723573 0.5
194 1 0.585024 0.923572 0.5
167 1 0.735025 0.573572 0.5
168 1 0.785025 0.623572 0.5
187 1 0.735025 0.773573 0.5
177 1 0.735024 0.673573 0.5
170 1 0.885025 0.623573 0.5
109 1 0.835025 0.973573 0.5
103 1 0.535025 0.973573 0.5
105 1 0.635025 0.973573 0.5
107 1 0.735025 0.973573 0.5
1 1 0.935025 0.973573 0.5
ITEM: TIMESTEP
25000
ITEM: NUMBER OF ATOMS
200
ITEM: BOX BOUNDS pp pp pp
1.7947635870171919e-01 1.1367529025090938e+01
1.2499377499999985e-01 1.9875006224999971e+01
-5.7735026918962495e-01 5.7735026918962495e-01
ITEM: ATOMS id type xs ys zs
151 1 0.229701 0.32766 0.5
69 1 0.129701 0.427661 0.5
163 1 0.329701 0.42766 0.5
165 1 0.429701 0.42766 0.5
37 1 0.0297014 0.12766 0.5
27 1 0.0297011 0.0276604 0.5
121 1 0.229701 0.0276603 0.5
134 1 0.379701 0.177661 0.5
157 1 0.379701 0.377661 0.5
38 1 0.0797012 0.17766 0.5
60 1 0.179702 0.37766 0.5
26 1 -0.0202995 0.0776604 0.5
153 1 0.429701 0.32766 0.5
144 1 0.379701 0.277661 0.5
28 1 0.0797007 0.0776606 0.5
145 1 0.429701 0.227661 0.5
125 1 0.429701 0.0276604 0.5
142 1 0.279701 0.27766 0.5
47 1 0.0297008 0.22766 0.5
152 1 0.329701 0.32766 0.5
36 1 -0.0202993 0.177661 0.5
50 1 0.179701 0.27766 0.5
30 1 0.179701 0.0776605 0.5
141 1 0.229701 0.227661 0.5
135 1 0.429701 0.12766 0.5
143 1 0.329701 0.22766 0.5
46 1 -0.0202985 0.27766 0.5
55 1 0.129701 0.32766 0.5
48 1 0.079701 0.27766 0.5
161 1 0.229702 0.427661 0.5
58 1 -0.0202986 0.37766 0.5
156 1 0.279702 0.37766 0.5
132 1 0.279701 0.17766 0.5
122 1 0.279701 0.0776607 0.5
123 1 0.329701 0.0276606 0.5
54 1 0.0297013 0.32766 0.5
40 1 0.179701 0.17766 0.5
29 1 0.129701 0.0276602 0.5
67 1 0.0297013 0.427661 0.5
59 1 0.0797013 0.37766 0.5
39 1 0.129701 0.12766 0.5
131 1 0.229701 0.127661 0.5
133 1 0.329701 0.12766 0.5
49 1 0.129701 0.22766 0.5
124 1 0.379701 0.0776604 0.5
164 1 0.379701 0.477661 0.5
68 1 0.0797016 0.477661 0.5
66 1 -0.0202987 0.47766 0.5
162 1 0.279701 0.47766 0.5
70 1 0.179701 0.47766 0.5
101 1 0.229701 0.82766 0.5
19 1 0.129702 0.92766 0.5
113 1 0.329701 0.92766 0.5
115 1 0.429701 0.92766 0.5
87 1 0.0297009 0.62766 0.5
77 1 0.0297011 0.52766 0.5
171 1 0.229701 0.527661 0.5
184 1 0.379701 0.67766 0.5
104 1 0.379701 0.87766 0.5
88 1 0.0797014 0.677661 0.5
10 1 0.179701 0.877661 0.5
76 1 -0.0202985 0.57766 0.5
105 1 0.429701 0.827661 0.5
194 1 0.379701 0.77766 0.5
78 1 0.0797013 0.577661 0.5
195 1 0.429701 0.727661 0.5
175 1 0.429701 0.52766 0.5
192 1 0.279701 0.77766 0.5
97 1 0.0297019 0.72766 0.5
103 1 0.329702 0.827661 0.5
86 1 -0.0202989 0.67766 0.5
100 1 0.179702 0.777661 0.5
80 1 0.179701 0.57766 0.5
191 1 0.229701 0.72766 0.5
185 1 0.429701 0.62766 0.5
193 1 0.329702 0.727661 0.5
96 1 -0.0202987 0.77766 0.5
9 1 0.129701 0.827661 0.5
98 1 0.0797013 0.77766 0.5
111 1 0.229701 0.92766 0.5
6 1 -0.020299 0.87766 0.5
102 1 0.279702 0.87766 0.5
182 1 0.279701 0.677661 0.5
172 1 0.279701 0.57766 0.5
173 1 0.329701 0.527661 0.5
7 1 0.0297011 0.82766 0.5
90 1 0.179701 0.677661 0.5
79 1 0.129701 0.52766 0.5
17 1 0.029701 0.92766 0.5
8 1 0.0797012 0.877661 0.5
89 1 0.129701 0.62766 0.5
181 1 0.229701 0.62766 0.5
183 1 0.329701 0.627661 0.5
99 1 0.129701 0.72766 0.5
174 1 0.379701 0.57766 0.5
114 1 0.379701 0.977661 0.5
18 1 0.0797014 0.977661 0.5
16 1 -0.0202982 0.97766 0.5
112 1 0.279701 0.977661 0.5
20 1 0.179701 0.97766 0.5
51 1 0.729701 0.327661 0.5
169 1 0.629702 0.42766 0.5
63 1 0.829701 0.42766 0.5
65 1 0.929702 0.42766 0.5
137 1 0.529701 0.127661 0.5
127 1 0.529701 0.0276601 0.5
21 1 0.729701 0.0276602 0.5
34 1 0.879701 0.17766 0.5
57 1 0.879701 0.37766 0.5
138 1 0.579701 0.177661 0.5
160 1 0.679702 0.37766 0.5
126 1 0.479701 0.0776607 0.5
53 1 0.929701 0.32766 0.5
44 1 0.879701 0.27766 0.5
128 1 0.579701 0.0776603 0.5
45 1 0.929701 0.227661 0.5
25 1 0.929701 0.0276605 0.5
42 1 0.779701 0.27766 0.5
147 1 0.529701 0.22766 0.5
52 1 0.829701 0.327661 0.5
136 1 0.479702 0.177661 0.5
150 1 0.679701 0.277661 0.5
130 1 0.679701 0.0776604 0.5
41 1 0.729701 0.227661 0.5
35 1 0.929701 0.12766 0.5
43 1 0.829701 0.22766 0.5
146 1 0.479701 0.277661 0.5
155 1 0.6297 0.32766 0.5
148 1 0.579701 0.27766 0.5
61 1 0.729701 0.42766 0.5
158 1 0.479701 0.377661 0.5
56 1 0.779701 0.377661 0.5
32 1 0.779701 0.177661 0.5
22 1 0.779701 0.0776603 0.5
23 1 0.829701 0.0276603 0.5
154 1 0.529701 0.32766 0.5
140 1 0.679701 0.17766 0.5
129 1 0.629701 0.0276606 0.5
167 1 0.529701 0.427661 0.5
159 1 0.579701 0.37766 0.5
139 1 0.629701 0.12766 0.5
31 1 0.729702 0.12766 0.5
33 1 0.829701 0.12766 0.5
149 1 0.629702 0.22766 0.5
24 1 0.879701 0.0776605 0.5
64 1 0.879701 0.47766 0.5
168 1 0.579701 0.477661 0.5
166 1 0.479701 0.47766 0.5
62 1 0.779702 0.47766 0.5
170 1 0.679701 0.47766 0.5
1 1 0.729701 0.82766 0.5
119 1 0.629701 0.927661 0.5
13 1 0.829702 0.92766 0.5
15 1 0.929701 0.92766 0.5
187 1 0.529701 0.62766 0.5
177 1 0.529702 0.52766 0.5
71 1 0.729701 0.527661 0.5
84 1 0.879701 0.677661 0.5
4 1 0.879701 0.87766 0.5
188 1 0.579701 0.67766 0.5
110 1 0.679701 0.87766 0.5
176 1 0.479701 0.57766 0.5
5 1 0.929701 0.82766 0.5
94 1 0.879701 0.777661 0.5
178 1 0.579701 0.57766 0.5
95 1 0.929701 0.727661 0.5
75 1 0.929701 0.52766 0.5
92 1 0.779701 0.777661 0.5
197 1 0.529701 0.72766 0.5
3 1 0.829701 0.82766 0.5
186 1 0.479701 0.67766 0.5
200 1 0.679701 0.777661 0.5
180 1 0.679701 0.577661 0.5
91 1 0.729701 0.72766 0.5
85 1 0.929702 0.62766 0.5
93 1 0.829702 0.72766 0.5
196 1 0.479701 0.77766 0.5
109 1 0.629701 0.82766 0.5
198 1 0.579701 0.77766 0.5
11 1 0.729701 0.92766 0.5
106 1 0.479701 0.87766 0.5
2 1 0.779702 0.877661 0.5
82 1 0.779702 0.677661 0.5
72 1 0.779701 0.57766 0.5
73 1 0.829701 0.52766 0.5
107 1 0.529701 0.82766 0.5
190 1 0.679701 0.677661 0.5
179 1 0.629702 0.52766 0.5
117 1 0.529701 0.92766 0.5
108 1 0.579702 0.87766 0.5
189 1 0.629701 0.627661 0.5
81 1 0.729701 0.627661 0.5
83 1 0.829701 0.62766 0.5
199 1 0.629701 0.72766 0.5
74 1 0.879701 0.577661 0.5
14 1 0.879702 0.97766 0.5
118 1 0.579701 0.97766 0.5
116 1 0.479701 0.97766 0.5
12 1 0.779701 0.97766 0.5
120 1 0.679701 0.97766 0.5
ITEM: TIMESTEP
30000
ITEM: NUMBER OF ATOMS
200
ITEM: BOX BOUNDS pp pp pp
1.9157191074690072e-01 1.1355433473045771e+01
1.4999252499999982e-01 1.9850007474999973e+01
-5.7735026918962495e-01 5.7735026918962495e-01
ITEM: ATOMS id type xs ys zs
172 1 0.0738469 0.423243 0.5
168 1 0.373847 0.323243 0.5
174 1 0.173847 0.423243 0.5
178 1 0.373847 0.423243 0.5
169 1 0.423847 0.273243 0.5
176 1 0.273847 0.423243 0.5
159 1 0.373846 0.223243 0.5
157 1 0.173847 0.223243 0.5
165 1 0.223847 0.273243 0.5
179 1 0.423847 0.373244 0.5
171 1 0.0238467 0.373243 0.5
166 1 0.273847 0.323244 0.5
143 1 0.123847 0.0732435 0.5
167 1 0.323847 0.273243 0.5
152 1 0.123847 0.173243 0.5
162 1 0.0738468 0.323243 0.5
177 1 0.323847 0.373243 0.5
148 1 0.373847 0.123243 0.5
161 1 0.0238472 0.273243 0.5
132 1 0.0738471 0.0232435 0.5
156 1 0.0738467 0.223244 0.5
138 1 0.373847 0.0232431 0.5
144 1 0.173847 0.123243 0.5
170 1 0.473847 0.323243 0.5
145 1 0.223846 0.0732434 0.5
164 1 0.173846 0.323243 0.5
142 1 0.0738467 0.123243 0.5
175 1 0.223847 0.373243 0.5
173 1 0.123846 0.373243 0.5
147 1 0.323847 0.0732432 0.5
163 1 0.123846 0.273243 0.5
141 1 0.023847 0.0732434 0.5
153 1 0.223847 0.173243 0.5
154 1 0.323847 0.173243 0.5
158 1 0.273847 0.223244 0.5
160 1 0.473847 0.223243 0.5