LAMMPS (10 Mar 2021)
 ##Input Script##
boundary       f f f
atom_style     sphere
units          metal
lattice         diamond 3.567
Lattice spacing in x,y,z = 3.5670000 3.5670000 3.5670000
region          box block -50 +50 -50 +50 -50 +50 units box
atom_modify     map     array
neighbor 2.0 nsq
create_box      2       box
Created orthogonal box = (-50.000000 -50.000000 -50.000000) to (50.000000 50.000000 50.000000)
  1 by 1 by 1 MPI processor grid
create_atoms    1       single 0 0 0 units box
Created 1 atoms
  create_atoms CPU = 0.000 seconds
create_atoms    2       single 2.7 0 0 units box
Created 1 atoms
  create_atoms CPU = 0.000 seconds
# mass            1       12.011
# mass            2       12.011
timestep        0.00001
pair_style lj/cut 1
pair_coeff * * 1.0 1.0
group           myatom id 2
1 atoms in group myatom
velocity        myatom set -50.0 0 0 units box
variable        dimerdistance equal x[2]-x[1]

# Setup output
compute	  Rke all erotate/sphere
compute   TKe all ke
compute   Pe all pe
variable  E  equal c_TKe+c_Pe+c_Rke
variable  ke atom "vx*vx+vy*vy+vz*vz"
variable  t equal "step*dt"

thermo          1
# thermo_style custom step temp pe ke etotal v_dimerdistance
thermo_style	custom v_dimerdistance step atoms vol temp c_Rke ke c_TKe pe c_Pe etotal v_E
thermo_modify norm no
compute         sys_pe all pe
shell           mkdir Dump
dump            mindump all custom 1 ./Dump/*.dump id type xs ys zs
fix             11 all nve
run             6000
Neighbor list info ...
  update every 1 steps, delay 10 steps, check yes
  max neighbors/atom: 2000, page size: 100000
  master list distance cutoff = 3
  ghost atom cutoff = 3
  1 neighbor lists, perpetual/occasional/extra = 1 0 0
  (1) pair lj/cut, perpetual
      attributes: half, newton on
      pair build: half/nsq/newton
      stencil: none
      bin: none
Per MPI rank memory allocation (min/avg/max) = 5.534 | 5.534 | 5.534 Mbytes
v_dimerdistance Step Atoms Volume Temp c_Rke KinEng c_TKe PotEng c_Pe TotEng v_E 
         2.7        0        2      1000000    524.78652            0  0.067833982  0.067833982            0            0  0.067833982  0.067833982 
      2.6995        1        2      1000000    524.78652            0  0.067833982  0.067833982            0            0  0.067833982  0.067833982 
       2.699        2        2      1000000    524.78652            0  0.067833982  0.067833982            0            0  0.067833982  0.067833982 
      2.6985        3        2      1000000    524.78652            0  0.067833982  0.067833982            0            0  0.067833982  0.067833982 
       2.698        4        2      1000000    524.78652            0  0.067833982  0.067833982            0            0  0.067833982  0.067833982 
      2.6975        5        2      1000000    524.78652            0  0.067833982  0.067833982            0            0  0.067833982  0.067833982 
       2.697        6        2      1000000    524.78652            0  0.067833982  0.067833982            0            0  0.067833982  0.067833982 
      2.6965        7        2      1000000    524.78652            0  0.067833982  0.067833982            0            0  0.067833982  0.067833982 
       2.696        8        2      1000000    524.78652            0  0.067833982  0.067833982            0            0  0.067833982  0.067833982 
      2.6955        9        2      1000000    524.78652            0  0.067833982  0.067833982            0            0  0.067833982  0.067833982 
       2.695       10        2      1000000    524.78652            0  0.067833982  0.067833982            0            0  0.067833982  0.067833982 
      2.6945       11        2      1000000    524.78652            0  0.067833982  0.067833982            0            0  0.067833982  0.067833982 
       2.694       12        2      1000000    524.78652            0  0.067833982  0.067833982            0            0  0.067833982  0.067833982 
      2.6935       13        2      1000000    524.78652            0  0.067833982  0.067833982            0            0  0.067833982  0.067833982 
       2.693       14        2      1000000    524.78652            0  0.067833982  0.067833982            0            0  0.067833982  0.067833982 
      2.6925       15        2      1000000    524.78652            0  0.067833982  0.067833982            0            0  0.067833982  0.067833982 
       2.692       16        2      1000000    524.78652            0  0.067833982  0.067833982            0            0  0.067833982  0.067833982 
      2.6915       17        2      1000000    524.78652            0  0.067833982  0.067833982            0            0  0.067833982  0.067833982 
       2.691       18        2      1000000    524.78652            0  0.067833982  0.067833982            0            0  0.067833982  0.067833982 
      2.6905       19        2      1000000    524.78652            0  0.067833982  0.067833982            0            0  0.067833982  0.067833982 
        2.69       20        2      1000000    524.78652            0  0.067833982  0.067833982            0            0  0.067833982  0.067833982 
      2.6895       21        2      1000000    524.78652            0  0.067833982  0.067833982            0            0  0.067833982  0.067833982 
       2.689       22        2      1000000    524.78652            0  0.067833982  0.067833982            0            0  0.067833982  0.067833982 
      2.6885       23        2      1000000    524.78652            0  0.067833982  0.067833982            0            0  0.067833982  0.067833982 
       2.688       24        2      1000000    524.78652            0  0.067833982  0.067833982            0            0  0.067833982  0.067833982 
      2.6875       25        2      1000000    524.78652            0  0.067833982  0.067833982            0            0  0.067833982  0.067833982 
       2.687       26        2      1000000    524.78652            0  0.067833982  0.067833982            0            0  0.067833982  0.067833982 
      2.6865       27        2      1000000    524.78652            0  0.067833982  0.067833982            0            0  0.067833982  0.067833982 
       2.686       28        2      1000000    524.78652            0  0.067833982  0.067833982            0            0  0.067833982  0.067833982 
      2.6855       29        2      1000000    524.78652            0  0.067833982  0.067833982            0            0  0.067833982  0.067833982 
       2.685       30        2      1000000    524.78652            0  0.067833982  0.067833982            0            0  0.067833982  0.067833982 
      2.6845       31        2      1000000    524.78652            0  0.067833982  0.067833982            0            0  0.067833982  0.067833982 
       2.684       32        2      1000000    524.78652            0  0.067833982  0.067833982            0            0  0.067833982  0.067833982 
      2.6835       33        2      1000000    524.78652            0  0.067833982  0.067833982            0            0  0.067833982  0.067833982 
       2.683       34        2      1000000    524.78652            0  0.067833982  0.067833982            0            0  0.067833982  0.067833982 
      2.6825       35        2      1000000    524.78652            0  0.067833982  0.067833982            0            0  0.067833982  0.067833982 
       2.682       36        2      1000000    524.78652            0  0.067833982  0.067833982            0            0  0.067833982  0.067833982 
      2.6815       37        2      1000000    524.78652            0  0.067833982  0.067833982            0            0  0.067833982  0.067833982 
       2.681       38        2      1000000    524.78652            0  0.067833982  0.067833982            0            0  0.067833982  0.067833982 
      2.6805       39        2      1000000    524.78652            0  0.067833982  0.067833982            0            0  0.067833982  0.067833982 
        2.68       40        2      1000000    524.78652            0  0.067833982  0.067833982            0            0  0.067833982  0.067833982 
      2.6795       41        2      1000000    524.78652            0  0.067833982  0.067833982            0            0  0.067833982  0.067833982 
       2.679       42        2      1000000    524.78652            0  0.067833982  0.067833982            0            0  0.067833982  0.067833982 
      2.6785       43        2      1000000    524.78652            0  0.067833982  0.067833982            0            0  0.067833982  0.067833982 
       2.678       44        2      1000000    524.78652            0  0.067833982  0.067833982            0            0  0.067833982  0.067833982 
      2.6775       45        2      1000000    524.78652            0  0.067833982  0.067833982            0            0  0.067833982  0.067833982 
       2.677       46        2      1000000    524.78652            0  0.067833982  0.067833982            0            0  0.067833982  0.067833982 
      2.6765       47        2      1000000    524.78652            0  0.067833982  0.067833982            0            0  0.067833982  0.067833982 
       2.676       48        2      1000000    524.78652            0  0.067833982  0.067833982            0            0  0.067833982  0.067833982 
      2.6755       49        2      1000000    524.78652            0  0.067833982  0.067833982            0            0  0.067833982  0.067833982 
       2.675       50        2      1000000    524.78652            0  0.067833982  0.067833982            0            0  0.067833982  0.067833982 
      2.6745       51        2      1000000    524.78652            0  0.067833982  0.067833982            0            0  0.067833982  0.067833982 
       2.674       52        2      1000000    524.78652            0  0.067833982  0.067833982            0            0  0.067833982  0.067833982 
      2.6735       53        2      1000000    524.78652            0  0.067833982  0.067833982            0            0  0.067833982  0.067833982 
       2.673       54        2      1000000    524.78652            0  0.067833982  0.067833982            0            0  0.067833982  0.067833982 
      2.6725       55        2      1000000    524.78652            0  0.067833982  0.067833982            0            0  0.067833982  0.067833982 
       2.672       56        2      1000000    524.78652            0  0.067833982  0.067833982            0            0  0.067833982  0.067833982 
      2.6715       57        2      1000000    524.78652            0  0.067833982  0.067833982            0            0  0.067833982  0.067833982 
       2.671       58        2      1000000    524.78652            0  0.067833982  0.067833982            0            0  0.067833982  0.067833982 
      2.6705       59        2      1000000    524.78652            0  0.067833982  0.067833982            0            0  0.067833982  0.067833982 
        2.67       60        2      1000000    524.78652            0  0.067833982  0.067833982            0            0  0.067833982  0.067833982 
      2.6695       61        2      1000000    524.78652            0  0.067833982  0.067833982            0            0  0.067833982  0.067833982 
       2.669       62        2      1000000    524.78652            0  0.067833982  0.067833982            0            0  0.067833982  0.067833982 
      2.6685       63        2      1000000    524.78652            0  0.067833982  0.067833982            0            0  0.067833982  0.067833982 
       2.668       64        2      1000000    524.78652            0  0.067833982  0.067833982            0            0  0.067833982  0.067833982 
      2.6675       65        2      1000000    524.78652            0  0.067833982  0.067833982            0            0  0.067833982  0.067833982 
       2.667       66        2      1000000    524.78652            0  0.067833982  0.067833982            0            0  0.067833982  0.067833982 
      2.6665       67        2      1000000    524.78652            0  0.067833982  0.067833982            0            0  0.067833982  0.067833982 
       2.666       68        2      1000000    524.78652            0  0.067833982  0.067833982            0            0  0.067833982  0.067833982 
      2.6655       69        2      1000000    524.78652            0  0.067833982  0.067833982            0            0  0.067833982  0.067833982 
       2.665       70        2      1000000    524.78652            0  0.067833982  0.067833982            0            0  0.067833982  0.067833982 
      2.6645       71        2      1000000    524.78652            0  0.067833982  0.067833982            0            0  0.067833982  0.067833982 
       2.664       72        2      1000000    524.78652            0  0.067833982  0.067833982            0            0  0.067833982  0.067833982 
      2.6635       73        2      1000000    524.78652            0  0.067833982  0.067833982            0            0  0.067833982  0.067833982 
       2.663       74        2      1000000    524.78652            0  0.067833982  0.067833982            0            0  0.067833982  0.067833982 
      2.6625       75        2      1000000    524.78652            0  0.067833982  0.067833982            0            0  0.067833982  0.067833982 
       2.662       76        2      1000000    524.78652            0  0.067833982  0.067833982            0            0  0.067833982  0.067833982 
      2.6615       77        2      1000000    524.78652            0  0.067833982  0.067833982            0            0  0.067833982  0.067833982 
       2.661       78        2      1000000    524.78652            0  0.067833982  0.067833982            0            0  0.067833982  0.067833982 
      2.6605       79        2      1000000    524.78652            0  0.067833982  0.067833982            0            0  0.067833982  0.067833982 
        2.66       80        2      1000000    524.78652            0  0.067833982  0.067833982            0            0  0.067833982  0.067833982 
      2.6595       81        2      1000000    524.78652            0  0.067833982  0.067833982            0            0  0.067833982  0.067833982 
       2.659       82        2      1000000    524.78652            0  0.067833982  0.067833982            0            0  0.067833982  0.067833982 
      2.6585       83        2      1000000    524.78652            0  0.067833982  0.067833982            0            0  0.067833982  0.067833982 
       2.658       84        2      1000000    524.78652            0  0.067833982  0.067833982            0            0  0.067833982  0.067833982 
      2.6575       85        2      1000000    524.78652            0  0.067833982  0.067833982            0            0  0.067833982  0.067833982 
       2.657       86        2      1000000    524.78652            0  0.067833982  0.067833982            0            0  0.067833982  0.067833982 
      2.6565       87        2      1000000    524.78652            0  0.067833982  0.067833982            0            0  0.067833982  0.067833982 
       2.656       88        2      1000000    524.78652            0  0.067833982  0.067833982            0            0  0.067833982  0.067833982 
      2.6555       89        2      1000000    524.78652            0  0.067833982  0.067833982            0            0  0.067833982  0.067833982 
       2.655       90        2      1000000    524.78652            0  0.067833982  0.067833982            0            0  0.067833982  0.067833982 
      2.6545       91        2      1000000    524.78652            0  0.067833982  0.067833982            0            0  0.067833982  0.067833982 
       2.654       92        2      1000000    524.78652            0  0.067833982  0.067833982            0            0  0.067833982  0.067833982 
      2.6535       93        2      1000000    524.78652            0  0.067833982  0.067833982            0            0  0.067833982  0.067833982 
       2.653       94        2      1000000    524.78652            0  0.067833982  0.067833982            0            0  0.067833982  0.067833982 
      2.6525       95        2      1000000    524.78652            0  0.067833982  0.067833982            0            0  0.067833982  0.067833982 
       2.652       96        2      1000000    524.78652            0  0.067833982  0.067833982            0            0  0.067833982  0.067833982 
      2.6515       97        2      1000000    524.78652            0  0.067833982  0.067833982            0            0  0.067833982  0.067833982 
       2.651       98        2      1000000    524.78652            0  0.067833982  0.067833982            0            0  0.067833982  0.067833982 
      2.6505       99        2      1000000    524.78652            0  0.067833982  0.067833982            0            0  0.067833982  0.067833982 
        2.65      100        2      1000000    524.78652            0  0.067833982  0.067833982            0            0  0.067833982  0.067833982 
      2.6495      101        2      1000000    524.78652            0  0.067833982  0.067833982            0            0  0.067833982  0.067833982 
       2.649      102        2      1000000    524.78652            0  0.067833982  0.067833982            0            0  0.067833982  0.067833982 
      2.6485      103        2      1000000    524.78652            0  0.067833982  0.067833982            0            0  0.067833982  0.067833982 
       2.648      104        2      1000000    524.78652            0  0.067833982  0.067833982            0            0  0.067833982  0.067833982 
      2.6475      105        2      1000000    524.78652            0  0.067833982  0.067833982            0            0  0.067833982  0.067833982 
       2.647      106        2      1000000    524.78652            0  0.067833982  0.067833982            0            0  0.067833982  0.067833982 
      2.6465      107        2      1000000    524.78652            0  0.067833982  0.067833982            0            0  0.067833982  0.067833982 
       2.646      108        2      1000000    524.78652            0  0.067833982  0.067833982            0            0  0.067833982  0.067833982 
      2.6455      109        2      1000000    524.78652            0  0.067833982  0.067833982            0            0  0.067833982  0.067833982 
       2.645      110        2      1000000    524.78652            0  0.067833982  0.067833982            0            0  0.067833982  0.067833982 
      2.6445      111        2      1000000    524.78652            0  0.067833982  0.067833982            0            0  0.067833982  0.067833982 
       2.644      112        2      1000000    524.78652            0  0.067833982  0.067833982            0            0  0.067833982  0.067833982 
      2.6435      113        2      1000000    524.78652            0  0.067833982  0.067833982            0            0  0.067833982  0.067833982 
       2.643      114        2      1000000    524.78652            0  0.067833982  0.067833982            0            0  0.067833982  0.067833982 
      2.6425      115        2      1000000    524.78652            0  0.067833982  0.067833982            0            0  0.067833982  0.067833982 
       2.642      116        2      1000000    524.78652            0  0.067833982  0.067833982            0            0  0.067833982  0.067833982 
      2.6415      117        2      1000000    524.78652            0  0.067833982  0.067833982            0            0  0.067833982  0.067833982 
       2.641      118        2      1000000    524.78652            0  0.067833982  0.067833982            0            0  0.067833982  0.067833982 
      2.6405      119        2      1000000    524.78652            0  0.067833982  0.067833982            0            0  0.067833982  0.067833982 
        2.64      120        2      1000000    524.78652            0  0.067833982  0.067833982            0            0  0.067833982  0.067833982 
      2.6395      121        2      1000000    524.78652            0  0.067833982  0.067833982            0            0  0.067833982  0.067833982 
       2.639      122        2      1000000    524.78652            0  0.067833982  0.067833982            0            0  0.067833982  0.067833982 
      2.6385      123        2      1000000    524.78652            0  0.067833982  0.067833982            0            0  0.067833982  0.067833982 
       2.638      124        2      1000000    524.78652            0  0.067833982  0.067833982            0            0  0.067833982  0.067833982 
      2.6375      125        2      1000000    524.78652            0  0.067833982  0.067833982            0            0  0.067833982  0.067833982 
       2.637      126        2      1000000    524.78652            0  0.067833982  0.067833982            0            0  0.067833982  0.067833982 
      2.6365      127        2      1000000    524.78652            0  0.067833982  0.067833982            0            0  0.067833982  0.067833982 
       2.636      128        2      1000000    524.78652            0  0.067833982  0.067833982            0            0  0.067833982  0.067833982 
      2.6355      129        2      1000000    524.78652            0  0.067833982  0.067833982            0            0  0.067833982  0.067833982 
       2.635      130        2      1000000    524.78652            0  0.067833982  0.067833982            0            0  0.067833982  0.067833982 
      2.6345      131        2      1000000    524.78652            0  0.067833982  0.067833982            0            0  0.067833982  0.067833982 
       2.634      132        2      1000000    524.78652            0  0.067833982  0.067833982            0            0  0.067833982  0.067833982 
      2.6335      133        2      1000000    524.78652            0  0.067833982  0.067833982            0            0  0.067833982  0.067833982 
       2.633      134        2      1000000    524.78652            0  0.067833982  0.067833982            0            0  0.067833982  0.067833982 
      2.6325      135        2      1000000    524.78652            0  0.067833982  0.067833982            0            0  0.067833982  0.067833982 
       2.632      136        2      1000000    524.78652            0  0.067833982  0.067833982            0            0  0.067833982  0.067833982 
      2.6315      137        2      1000000    524.78652            0  0.067833982  0.067833982            0            0  0.067833982  0.067833982 
       2.631      138        2      1000000    524.78652            0  0.067833982  0.067833982            0            0  0.067833982  0.067833982 
      2.6305      139        2      1000000    524.78652            0  0.067833982  0.067833982            0            0  0.067833982  0.067833982 
        2.63      140        2      1000000    524.78652            0  0.067833982  0.067833982            0            0  0.067833982  0.067833982 
      2.6295      141        2      1000000    524.78652            0  0.067833982  0.067833982            0            0  0.067833982  0.067833982 
       2.629      142        2      1000000    524.78652            0  0.067833982  0.067833982            0            0  0.067833982  0.067833982 
      2.6285      143        2      1000000    524.78652            0  0.067833982  0.067833982            0            0  0.067833982  0.067833982 
       2.628      144        2      1000000    524.78652            0  0.067833982  0.067833982            0            0  0.067833982  0.067833982 
      2.6275      145        2      1000000    524.78652            0  0.067833982  0.067833982            0            0  0.067833982  0.067833982 
       2.627      146        2      1000000    524.78652            0  0.067833982  0.067833982            0            0  0.067833982  0.067833982 
      2.6265      147        2      1000000    524.78652            0  0.067833982  0.067833982            0            0  0.067833982  0.067833982 
       2.626      148        2      1000000    524.78652            0  0.067833982  0.067833982            0            0  0.067833982  0.067833982 
      2.6255      149        2      1000000    524.78652            0  0.067833982  0.067833982            0            0  0.067833982  0.067833982 
       2.625      150        2      1000000    524.78652            0  0.067833982  0.067833982            0            0  0.067833982  0.067833982 
      2.6245      151        2      1000000    524.78652            0  0.067833982  0.067833982            0            0  0.067833982  0.067833982 
       2.624      152        2      1000000    524.78652            0  0.067833982  0.067833982            0            0  0.067833982  0.067833982 
      2.6235      153        2      1000000    524.78652            0  0.067833982  0.067833982            0            0  0.067833982  0.067833982 
       2.623      154        2      1000000    524.78652            0  0.067833982  0.067833982            0            0  0.067833982  0.067833982 
      2.6225      155        2      1000000    524.78652            0  0.067833982  0.067833982            0            0  0.067833982  0.067833982 
       2.622      156        2      1000000    524.78652            0  0.067833982  0.067833982            0            0  0.067833982  0.067833982 
      2.6215      157        2      1000000    524.78652            0  0.067833982  0.067833982            0            0  0.067833982  0.067833982 
       2.621      158        2      1000000    524.78652            0  0.067833982  0.067833982            0            0  0.067833982  0.067833982 
      2.6205      159        2      1000000    524.78652            0  0.067833982  0.067833982            0            0  0.067833982  0.067833982 
        2.62      160        2      1000000    524.78652            0  0.067833982  0.067833982            0            0  0.067833982  0.067833982 
      2.6195      161        2      1000000    524.78652            0  0.067833982  0.067833982            0            0  0.067833982  0.067833982 
       2.619      162        2      1000000    524.78652            0  0.067833982  0.067833982            0            0  0.067833982  0.067833982 
      2.6185      163        2      1000000    524.78652            0  0.067833982  0.067833982            0            0  0.067833982  0.067833982 
       2.618      164        2      1000000    524.78652            0  0.067833982  0.067833982            0            0  0.067833982  0.067833982 
      2.6175      165        2      1000000    524.78652            0  0.067833982  0.067833982            0            0  0.067833982  0.067833982 
       2.617      166        2      1000000    524.78652            0  0.067833982  0.067833982            0            0  0.067833982  0.067833982 
      2.6165      167        2      1000000    524.78652            0  0.067833982  0.067833982            0            0  0.067833982  0.067833982 
       2.616      168        2      1000000    524.78652            0  0.067833982  0.067833982            0            0  0.067833982  0.067833982 
      2.6155      169        2      1000000    524.78652            0  0.067833982  0.067833982            0            0  0.067833982  0.067833982 
       2.615      170        2      1000000    524.78652            0  0.067833982  0.067833982            0            0  0.067833982  0.067833982 
      2.6145      171        2      1000000    524.78652            0  0.067833982  0.067833982            0            0  0.067833982  0.067833982 
       2.614      172        2      1000000    524.78652            0  0.067833982  0.067833982            0            0  0.067833982  0.067833982 
      2.6135      173        2      1000000    524.78652            0  0.067833982  0.067833982            0            0  0.067833982  0.067833982 
       2.613      174        2      1000000    524.78652            0  0.067833982  0.067833982            0            0  0.067833982  0.067833982 
      2.6125      175        2      1000000    524.78652            0  0.067833982  0.067833982            0            0  0.067833982  0.067833982 
       2.612      176        2      1000000    524.78652            0  0.067833982  0.067833982            0            0  0.067833982  0.067833982 
      2.6115      177        2      1000000    524.78652            0  0.067833982  0.067833982            0            0  0.067833982  0.067833982 
       2.611      178        2      1000000    524.78652            0  0.067833982  0.067833982            0            0  0.067833982  0.067833982 
      2.6105      179        2      1000000    524.78652            0  0.067833982  0.067833982            0            0  0.067833982  0.067833982 
        2.61      180        2      1000000    524.78652            0  0.067833982  0.067833982            0            0  0.067833982  0.067833982 
      2.6095      181        2      1000000    524.78652            0  0.067833982  0.067833982            0            0  0.067833982  0.067833982 
       2.609      182        2      1000000    524.78652            0  0.067833982  0.067833982            0            0  0.067833982  0.067833982 
      2.6085      183        2      1000000    524.78652            0  0.067833982  0.067833982            0            0  0.067833982  0.067833982 
       2.608      184        2      1000000    524.78652            0  0.067833982  0.067833982            0            0  0.067833982  0.067833982 
      2.6075      185        2      1000000    524.78652            0  0.067833982  0.067833982            0            0  0.067833982  0.067833982 
       2.607      186        2      1000000    524.78652            0  0.067833982  0.067833982            0            0  0.067833982  0.067833982 
      2.6065      187        2      1000000    524.78652            0  0.067833982  0.067833982            0            0  0.067833982  0.067833982 
       2.606      188        2      1000000    524.78652            0  0.067833982  0.067833982            0            0  0.067833982  0.067833982 
      2.6055      189        2      1000000    524.78652            0  0.067833982  0.067833982            0            0  0.067833982  0.067833982 
       2.605      190        2      1000000    524.78652            0  0.067833982  0.067833982            0            0  0.067833982  0.067833982 
      2.6045      191        2      1000000    524.78652            0  0.067833982  0.067833982            0            0  0.067833982  0.067833982 
       2.604      192        2      1000000    524.78652            0  0.067833982  0.067833982            0            0  0.067833982  0.067833982 
      2.6035      193        2      1000000    524.78652            0  0.067833982  0.067833982            0            0  0.067833982  0.067833982 
       2.603      194        2      1000000    524.78652            0  0.067833982  0.067833982            0            0  0.067833982  0.067833982 
      2.6025      195        2      1000000    524.78652            0  0.067833982  0.067833982            0            0  0.067833982  0.067833982 
       2.602      196        2      1000000    524.78652            0  0.067833982  0.067833982            0            0  0.067833982  0.067833982 
      2.6015      197        2      1000000    524.78652            0  0.067833982  0.067833982            0            0  0.067833982  0.067833982 
       2.601      198        2      1000000    524.78652            0  0.067833982  0.067833982            0            0  0.067833982  0.067833982 
      2.6005      199        2      1000000    524.78652            0  0.067833982  0.067833982            0            0  0.067833982  0.067833982 
         2.6      200        2      1000000    524.78652            0  0.067833982  0.067833982            0            0  0.067833982  0.067833982 
      2.5995      201        2      1000000    524.78652            0  0.067833982  0.067833982            0            0  0.067833982  0.067833982 
       2.599      202        2      1000000    524.78652            0  0.067833982  0.067833982            0            0  0.067833982  0.067833982 
      2.5985      203        2      1000000    524.78652            0  0.067833982  0.067833982            0            0  0.067833982  0.067833982 
       2.598      204        2      1000000    524.78652            0  0.067833982  0.067833982            0            0  0.067833982  0.067833982 
      2.5975      205        2      1000000    524.78652            0  0.067833982  0.067833982            0            0  0.067833982  0.067833982 
       2.597      206        2      1000000    524.78652            0  0.067833982  0.067833982            0            0  0.067833982  0.067833982 
      2.5965      207        2      1000000    524.78652            0  0.067833982  0.067833982            0            0  0.067833982  0.067833982 
       2.596      208        2      1000000    524.78652            0  0.067833982  0.067833982            0            0  0.067833982  0.067833982 
      2.5955      209        2      1000000    524.78652            0  0.067833982  0.067833982            0            0  0.067833982  0.067833982 
       2.595      210        2      1000000    524.78652            0  0.067833982  0.067833982            0            0  0.067833982  0.067833982 
      2.5945      211        2      1000000    524.78652            0  0.067833982  0.067833982            0            0  0.067833982  0.067833982 
       2.594      212        2      1000000    524.78652            0  0.067833982  0.067833982            0            0  0.067833982  0.067833982 
      2.5935      213        2      1000000    524.78652            0  0.067833982  0.067833982            0            0  0.067833982  0.067833982 
       2.593      214        2      1000000    524.78652            0  0.067833982  0.067833982            0            0  0.067833982  0.067833982 
      2.5925      215        2      1000000    524.78652            0  0.067833982  0.067833982            0            0  0.067833982  0.067833982 
       2.592      216        2      1000000    524.78652            0  0.067833982  0.067833982            0            0  0.067833982  0.067833982 
      2.5915      217        2      1000000    524.78652            0  0.067833982  0.067833982            0            0  0.067833982  0.067833982 
       2.591      218        2      1000000    524.78652            0  0.067833982  0.067833982            0            0  0.067833982  0.067833982 
      2.5905      219        2      1000000    524.78652            0  0.067833982  0.067833982            0            0  0.067833982  0.067833982 
        2.59      220        2      1000000    524.78652            0  0.067833982  0.067833982            0            0  0.067833982  0.067833982 
      2.5895      221        2      1000000    524.78652            0  0.067833982  0.067833982            0            0  0.067833982  0.067833982 
       2.589      222        2      1000000    524.78652            0  0.067833982  0.067833982            0            0  0.067833982  0.067833982 
      2.5885      223        2      1000000    524.78652            0  0.067833982  0.067833982            0            0  0.067833982  0.067833982 
       2.588      224        2      1000000    524.78652            0  0.067833982  0.067833982            0            0  0.067833982  0.067833982 
      2.5875      225        2      1000000    524.78652            0  0.067833982  0.067833982            0            0  0.067833982  0.067833982 
       2.587      226        2      1000000    524.78652            0  0.067833982  0.067833982            0            0  0.067833982  0.067833982 
      2.5865      227        2      1000000    524.78652            0  0.067833982  0.067833982            0            0  0.067833982  0.067833982 
       2.586      228        2      1000000    524.78652            0  0.067833982  0.067833982            0            0  0.067833982  0.067833982 
      2.5855      229        2      1000000    524.78652            0  0.067833982  0.067833982            0            0  0.067833982  0.067833982 
       2.585      230        2      1000000    524.78652            0  0.067833982  0.067833982            0            0  0.067833982  0.067833982 
      2.5845      231        2      1000000    524.78652            0  0.067833982  0.067833982            0            0  0.067833982  0.067833982 
       2.584      232        2      1000000    524.78652            0  0.067833982  0.067833982            0            0  0.067833982  0.067833982 
      2.5835      233        2      1000000    524.78652            0  0.067833982  0.067833982            0            0  0.067833982  0.067833982 
       2.583      234        2      1000000    524.78652            0  0.067833982  0.067833982            0            0  0.067833982  0.067833982 
      2.5825      235        2      1000000    524.78652            0  0.067833982  0.067833982            0            0  0.067833982  0.067833982 
       2.582      236        2      1000000    524.78652            0  0.067833982  0.067833982            0            0  0.067833982  0.067833982 
      2.5815      237        2      1000000    524.78652            0  0.067833982  0.067833982            0            0  0.067833982  0.067833982 
       2.581      238        2      1000000    524.78652            0  0.067833982  0.067833982            0            0  0.067833982  0.067833982 
      2.5805      239        2      1000000    524.78652            0  0.067833982  0.067833982            0            0  0.067833982  0.067833982 
        2.58      240        2      1000000    524.78652            0  0.067833982  0.067833982            0            0  0.067833982  0.067833982 
      2.5795      241        2      1000000    524.78652            0  0.067833982  0.067833982            0            0  0.067833982  0.067833982 
       2.579      242        2      1000000    524.78652            0  0.067833982  0.067833982            0            0  0.067833982  0.067833982 
      2.5785      243        2      1000000    524.78652            0  0.067833982  0.067833982            0            0  0.067833982  0.067833982 
       2.578      244        2      1000000    524.78652            0  0.067833982  0.067833982            0            0  0.067833982  0.067833982 
      2.5775      245        2      1000000    524.78652            0  0.067833982  0.067833982            0            0  0.067833982  0.067833982 
       2.577      246        2      1000000    524.78652            0  0.067833982  0.067833982            0            0  0.067833982  0.067833982 
      2.5765      247        2      1000000    524.78652            0  0.067833982  0.067833982            0            0  0.067833982  0.067833982 
       2.576      248        2      1000000    524.78652            0  0.067833982  0.067833982            0            0  0.067833982  0.067833982 
      2.5755      249        2      1000000    524.78652            0  0.067833982  0.067833982            0            0  0.067833982  0.067833982 
       2.575      250        2      1000000    524.78652            0  0.067833982  0.067833982            0            0  0.067833982  0.067833982 
      2.5745      251        2      1000000    524.78652            0  0.067833982  0.067833982            0            0  0.067833982  0.067833982 
       2.574      252        2      1000000    524.78652            0  0.067833982  0.067833982            0            0  0.067833982  0.067833982 
      2.5735      253        2      1000000    524.78652            0  0.067833982  0.067833982            0            0  0.067833982  0.067833982 
       2.573      254        2      1000000    524.78652            0  0.067833982  0.067833982            0            0  0.067833982  0.067833982 
      2.5725      255        2      1000000    524.78652            0  0.067833982  0.067833982            0            0  0.067833982  0.067833982 
       2.572      256        2      1000000    524.78652            0  0.067833982  0.067833982            0            0  0.067833982  0.067833982 
      2.5715      257        2      1000000    524.78652            0  0.067833982  0.067833982            0            0  0.067833982  0.067833982 
       2.571      258        2      1000000    524.78652            0  0.067833982  0.067833982            0            0  0.067833982  0.067833982 
      2.5705      259        2      1000000    524.78652            0  0.067833982  0.067833982            0            0  0.067833982  0.067833982 
        2.57      260        2      1000000    524.78652            0  0.067833982  0.067833982            0            0  0.067833982  0.067833982 
      2.5695      261        2      1000000    524.78652            0  0.067833982  0.067833982            0            0  0.067833982  0.067833982 
       2.569      262        2      1000000    524.78652            0  0.067833982  0.067833982            0            0  0.067833982  0.067833982 
      2.5685      263        2      1000000    524.78652            0  0.067833982  0.067833982            0            0  0.067833982  0.067833982 
       2.568      264        2      1000000    524.78652            0  0.067833982  0.067833982            0            0  0.067833982  0.067833982 
      2.5675      265        2      1000000    524.78652            0  0.067833982  0.067833982            0            0  0.067833982  0.067833982 
       2.567      266        2      1000000    524.78652            0  0.067833982  0.067833982            0            0  0.067833982  0.067833982 
      2.5665      267        2      1000000    524.78652            0  0.067833982  0.067833982            0            0  0.067833982  0.067833982 
       2.566      268        2      1000000    524.78652            0  0.067833982  0.067833982            0            0  0.067833982  0.067833982 
      2.5655      269        2      1000000    524.78652            0  0.067833982  0.067833982            0            0  0.067833982  0.067833982 
       2.565      270        2      1000000    524.78652            0  0.067833982  0.067833982            0            0  0.067833982  0.067833982 
      2.5645      271        2      1000000    524.78652            0  0.067833982  0.067833982            0            0  0.067833982  0.067833982 
       2.564      272        2      1000000    524.78652            0  0.067833982  0.067833982            0            0  0.067833982  0.067833982 
      2.5635      273        2      1000000    524.78652            0  0.067833982  0.067833982            0            0  0.067833982  0.067833982 
       2.563      274        2      1000000    524.78652            0  0.067833982  0.067833982            0            0  0.067833982  0.067833982 
      2.5625      275        2      1000000    524.78652            0  0.067833982  0.067833982            0            0  0.067833982  0.067833982 
       2.562      276        2      1000000    524.78652            0  0.067833982  0.067833982            0            0  0.067833982  0.067833982 
      2.5615      277        2      1000000    524.78652            0  0.067833982  0.067833982            0            0  0.067833982  0.067833982 
       2.561      278        2      1000000    524.78652            0  0.067833982  0.067833982            0            0  0.067833982  0.067833982 
      2.5605      279        2      1000000    524.78652            0  0.067833982  0.067833982            0            0  0.067833982  0.067833982 
        2.56      280        2      1000000    524.78652            0  0.067833982  0.067833982            0            0  0.067833982  0.067833982 
      2.5595      281        2      1000000    524.78652            0  0.067833982  0.067833982            0            0  0.067833982  0.067833982 
       2.559      282        2      1000000    524.78652            0  0.067833982  0.067833982            0            0  0.067833982  0.067833982 
      2.5585      283        2      1000000    524.78652            0  0.067833982  0.067833982            0            0  0.067833982  0.067833982 
       2.558      284        2      1000000    524.78652            0  0.067833982  0.067833982            0            0  0.067833982  0.067833982 
      2.5575      285        2      1000000    524.78652            0  0.067833982  0.067833982            0            0  0.067833982  0.067833982 
       2.557      286        2      1000000    524.78652            0  0.067833982  0.067833982            0            0  0.067833982  0.067833982 
      2.5565      287        2      1000000    524.78652            0  0.067833982  0.067833982            0            0  0.067833982  0.067833982 
       2.556      288        2      1000000    524.78652            0  0.067833982  0.067833982            0            0  0.067833982  0.067833982 
      2.5555      289        2      1000000    524.78652            0  0.067833982  0.067833982            0            0  0.067833982  0.067833982 
       2.555      290        2      1000000    524.78652            0  0.067833982  0.067833982            0            0  0.067833982  0.067833982 
      2.5545      291        2      1000000    524.78652            0  0.067833982  0.067833982            0            0  0.067833982  0.067833982 
       2.554      292        2      1000000    524.78652            0  0.067833982  0.067833982            0            0  0.067833982  0.067833982 
      2.5535      293        2      1000000    524.78652            0  0.067833982  0.067833982            0            0  0.067833982  0.067833982 
       2.553      294        2      1000000    524.78652            0  0.067833982  0.067833982            0            0  0.067833982  0.067833982 
      2.5525      295        2      1000000    524.78652            0  0.067833982  0.067833982            0            0  0.067833982  0.067833982 
       2.552      296        2      1000000    524.78652            0  0.067833982  0.067833982            0            0  0.067833982  0.067833982 
      2.5515      297        2      1000000    524.78652            0  0.067833982  0.067833982            0            0  0.067833982  0.067833982 
       2.551      298        2      1000000    524.78652            0  0.067833982  0.067833982            0            0  0.067833982  0.067833982 
      2.5505      299        2      1000000    524.78652            0  0.067833982  0.067833982            0            0  0.067833982  0.067833982 
        2.55      300        2      1000000    524.78652            0  0.067833982  0.067833982            0            0  0.067833982  0.067833982 
      2.5495      301        2      1000000    524.78652            0  0.067833982  0.067833982            0            0  0.067833982  0.067833982 
       2.549      302        2      1000000    524.78652            0  0.067833982  0.067833982            0            0  0.067833982  0.067833982 
      2.5485      303        2      1000000    524.78652            0  0.067833982  0.067833982            0            0  0.067833982  0.067833982 
       2.548      304        2      1000000    524.78652            0  0.067833982  0.067833982            0            0  0.067833982  0.067833982 
      2.5475      305        2      1000000    524.78652            0  0.067833982  0.067833982            0            0  0.067833982  0.067833982 
       2.547      306        2      1000000    524.78652            0  0.067833982  0.067833982            0            0  0.067833982  0.067833982 
      2.5465      307        2      1000000    524.78652            0  0.067833982  0.067833982            0            0  0.067833982  0.067833982 
       2.546      308        2      1000000    524.78652            0  0.067833982  0.067833982            0            0  0.067833982  0.067833982 
      2.5455      309        2      1000000    524.78652            0  0.067833982  0.067833982            0            0  0.067833982  0.067833982 
       2.545      310        2      1000000    524.78652            0  0.067833982  0.067833982            0            0  0.067833982  0.067833982 
      2.5445      311        2      1000000    524.78652            0  0.067833982  0.067833982            0            0  0.067833982  0.067833982 
       2.544      312        2      1000000    524.78652            0  0.067833982  0.067833982            0            0  0.067833982  0.067833982 
      2.5435      313        2      1000000    524.78652            0  0.067833982  0.067833982            0            0  0.067833982  0.067833982 
       2.543      314        2      1000000    524.78652            0  0.067833982  0.067833982            0            0  0.067833982  0.067833982 
      2.5425      315        2      1000000    524.78652            0  0.067833982  0.067833982            0            0  0.067833982  0.067833982 
       2.542      316        2      1000000    524.78652            0  0.067833982  0.067833982            0            0  0.067833982  0.067833982 
      2.5415      317        2      1000000    524.78652            0  0.067833982  0.067833982            0            0  0.067833982  0.067833982 
       2.541      318        2      1000000    524.78652            0  0.067833982  0.067833982            0            0  0.067833982  0.067833982 
      2.5405      319        2      1000000    524.78652            0  0.067833982  0.067833982            0            0  0.067833982  0.067833982 
        2.54      320        2      1000000    524.78652            0  0.067833982  0.067833982            0            0  0.067833982  0.067833982 
      2.5395      321        2      1000000    524.78652            0  0.067833982  0.067833982            0            0  0.067833982  0.067833982 
       2.539      322        2      1000000    524.78652            0  0.067833982  0.067833982            0            0  0.067833982  0.067833982 
      2.5385      323        2      1000000    524.78652            0  0.067833982  0.067833982            0            0  0.067833982  0.067833982 
       2.538      324        2      1000000    524.78652            0  0.067833982  0.067833982            0            0  0.067833982  0.067833982 
      2.5375      325        2      1000000    524.78652            0  0.067833982  0.067833982            0            0  0.067833982  0.067833982 
       2.537      326        2      1000000    524.78652            0  0.067833982  0.067833982            0            0  0.067833982  0.067833982 
      2.5365      327        2      1000000    524.78652            0  0.067833982  0.067833982            0            0  0.067833982  0.067833982 
       2.536      328        2      1000000    524.78652            0  0.067833982  0.067833982            0            0  0.067833982  0.067833982 
      2.5355      329        2      1000000    524.78652            0  0.067833982  0.067833982            0            0  0.067833982  0.067833982 
       2.535      330        2      1000000    524.78652            0  0.067833982  0.067833982            0            0  0.067833982  0.067833982 
      2.5345      331        2      1000000    524.78652            0  0.067833982  0.067833982            0            0  0.067833982  0.067833982 
       2.534      332        2      1000000    524.78652            0  0.067833982  0.067833982            0            0  0.067833982  0.067833982 
      2.5335      333        2      1000000    524.78652            0  0.067833982  0.067833982            0            0  0.067833982  0.067833982 
       2.533      334        2      1000000    524.78652            0  0.067833982  0.067833982            0            0  0.067833982  0.067833982 
      2.5325      335        2      1000000    524.78652            0  0.067833982  0.067833982            0            0  0.067833982  0.067833982 
       2.532      336        2      1000000    524.78652            0  0.067833982  0.067833982            0            0  0.067833982  0.067833982 
      2.5315      337        2      1000000    524.78652            0  0.067833982  0.067833982            0            0  0.067833982  0.067833982 
       2.531      338        2      1000000    524.78652            0  0.067833982  0.067833982            0            0  0.067833982  0.067833982 
      2.5305      339        2      1000000    524.78652            0  0.067833982  0.067833982            0            0  0.067833982  0.067833982 
        2.53      340        2      1000000    524.78652            0  0.067833982  0.067833982            0            0  0.067833982  0.067833982 
      2.5295      341        2      1000000    524.78652            0  0.067833982  0.067833982            0            0  0.067833982  0.067833982 
       2.529      342        2      1000000    524.78652            0  0.067833982  0.067833982            0            0  0.067833982  0.067833982 
      2.5285      343        2      1000000    524.78652            0  0.067833982  0.067833982            0            0  0.067833982  0.067833982 
       2.528      344        2      1000000    524.78652            0  0.067833982  0.067833982            0            0  0.067833982  0.067833982 
      2.5275      345        2      1000000    524.78652            0  0.067833982  0.067833982            0            0  0.067833982  0.067833982 
       2.527      346        2      1000000    524.78652            0  0.067833982  0.067833982            0            0  0.067833982  0.067833982 
      2.5265      347        2      1000000    524.78652            0  0.067833982  0.067833982            0            0  0.067833982  0.067833982 
       2.526      348        2      1000000    524.78652            0  0.067833982  0.067833982            0            0  0.067833982  0.067833982 
      2.5255      349        2      1000000    524.78652            0  0.067833982  0.067833982            0            0  0.067833982  0.067833982 
       2.525      350        2      1000000    524.78652            0  0.067833982  0.067833982            0            0  0.067833982  0.067833982 
      2.5245      351        2      1000000    524.78652            0  0.067833982  0.067833982            0            0  0.067833982  0.067833982 
       2.524      352        2      1000000    524.78652            0  0.067833982  0.067833982            0            0  0.067833982  0.067833982 
      2.5235      353        2      1000000    524.78652            0  0.067833982  0.067833982            0            0  0.067833982  0.067833982 
       2.523      354        2      1000000    524.78652            0  0.067833982  0.067833982            0            0  0.067833982  0.067833982 
      2.5225      355        2      1000000    524.78652            0  0.067833982  0.067833982            0            0  0.067833982  0.067833982 
       2.522      356        2      1000000    524.78652            0  0.067833982  0.067833982            0            0  0.067833982  0.067833982 
      2.5215      357        2      1000000    524.78652            0  0.067833982  0.067833982            0            0  0.067833982  0.067833982 
       2.521      358        2      1000000    524.78652            0  0.067833982  0.067833982            0            0  0.067833982  0.067833982 
      2.5205      359        2      1000000    524.78652            0  0.067833982  0.067833982            0            0  0.067833982  0.067833982 
        2.52      360        2      1000000    524.78652            0  0.067833982  0.067833982            0            0  0.067833982  0.067833982 
      2.5195      361        2      1000000    524.78652            0  0.067833982  0.067833982            0            0  0.067833982  0.067833982 
       2.519      362        2      1000000    524.78652            0  0.067833982  0.067833982            0            0  0.067833982  0.067833982 
      2.5185      363        2      1000000    524.78652            0  0.067833982  0.067833982            0            0  0.067833982  0.067833982 
       2.518      364        2      1000000    524.78652            0  0.067833982  0.067833982            0            0  0.067833982  0.067833982 
      2.5175      365        2      1000000    524.78652            0  0.067833982  0.067833982            0            0  0.067833982  0.067833982 
       2.517      366        2      1000000    524.78652            0  0.067833982  0.067833982            0            0  0.067833982  0.067833982 
      2.5165      367        2      1000000    524.78652            0  0.067833982  0.067833982            0            0  0.067833982  0.067833982 
       2.516      368        2      1000000    524.78652            0  0.067833982  0.067833982            0            0  0.067833982  0.067833982 
      2.5155      369        2      1000000    524.78652            0  0.067833982  0.067833982            0            0  0.067833982  0.067833982 
       2.515      370        2      1000000    524.78652            0  0.067833982  0.067833982            0            0  0.067833982  0.067833982 
      2.5145      371        2      1000000    524.78652            0  0.067833982  0.067833982            0            0  0.067833982  0.067833982 
       2.514      372        2      1000000    524.78652            0  0.067833982  0.067833982            0            0  0.067833982  0.067833982 
      2.5135      373        2      1000000    524.78652            0  0.067833982  0.067833982            0            0  0.067833982  0.067833982 
       2.513      374        2      1000000    524.78652            0  0.067833982  0.067833982            0            0  0.067833982  0.067833982 
      2.5125      375        2      1000000    524.78652            0  0.067833982  0.067833982            0            0  0.067833982  0.067833982 
       2.512      376        2      1000000    524.78652            0  0.067833982  0.067833982            0            0  0.067833982  0.067833982 
      2.5115      377        2      1000000    524.78652            0  0.067833982  0.067833982            0            0  0.067833982  0.067833982 
       2.511      378        2      1000000    524.78652            0  0.067833982  0.067833982            0            0  0.067833982  0.067833982 
      2.5105      379        2      1000000    524.78652            0  0.067833982  0.067833982            0            0  0.067833982  0.067833982 
        2.51      380        2      1000000    524.78652            0  0.067833982  0.067833982            0            0  0.067833982  0.067833982 
      2.5095      381        2      1000000    524.78652            0  0.067833982  0.067833982            0            0  0.067833982  0.067833982 
       2.509      382        2      1000000    524.78652            0  0.067833982  0.067833982            0            0  0.067833982  0.067833982 
      2.5085      383        2      1000000    524.78652            0  0.067833982  0.067833982            0            0  0.067833982  0.067833982 
       2.508      384        2      1000000    524.78652            0  0.067833982  0.067833982            0            0  0.067833982  0.067833982 
      2.5075      385        2      1000000    524.78652            0  0.067833982  0.067833982            0            0  0.067833982  0.067833982 
       2.507      386        2      1000000    524.78652            0  0.067833982  0.067833982            0            0  0.067833982  0.067833982 
      2.5065      387        2      1000000    524.78652            0  0.067833982  0.067833982            0            0  0.067833982  0.067833982 
       2.506      388        2      1000000    524.78652            0  0.067833982  0.067833982            0            0  0.067833982  0.067833982 
      2.5055      389        2      1000000    524.78652            0  0.067833982  0.067833982            0            0  0.067833982  0.067833982 
       2.505      390        2      1000000    524.78652            0  0.067833982  0.067833982            0            0  0.067833982  0.067833982 
      2.5045      391        2      1000000    524.78652            0  0.067833982  0.067833982            0            0  0.067833982  0.067833982 
       2.504      392        2      1000000    524.78652            0  0.067833982  0.067833982            0            0  0.067833982  0.067833982 
      2.5035      393        2      1000000    524.78652            0  0.067833982  0.067833982            0            0  0.067833982  0.067833982 
       2.503      394        2      1000000    524.78652            0  0.067833982  0.067833982            0            0  0.067833982  0.067833982 
      2.5025      395        2      1000000    524.78652            0  0.067833982  0.067833982            0            0  0.067833982  0.067833982 
       2.502      396        2      1000000    524.78652            0  0.067833982  0.067833982            0            0  0.067833982  0.067833982 
      2.5015      397        2      1000000    524.78652            0  0.067833982  0.067833982            0            0  0.067833982  0.067833982 
       2.501      398        2      1000000    524.78652            0  0.067833982  0.067833982            0            0  0.067833982  0.067833982 
      2.5005      399        2      1000000    524.78652            0  0.067833982  0.067833982            0            0  0.067833982  0.067833982 
         2.5      400        2      1000000    524.78652            0  0.067833982  0.067833982            0            0  0.067833982  0.067833982 
      2.4995      401        2      1000000    524.78652            0  0.067833982  0.067833982            0            0  0.067833982  0.067833982 
       2.499      402        2      1000000    524.78652            0  0.067833982  0.067833982            0            0  0.067833982  0.067833982 
      2.4985      403        2      1000000    524.78652            0  0.067833982  0.067833982            0            0  0.067833982  0.067833982 
       2.498      404        2      1000000    524.78652            0  0.067833982  0.067833982            0            0  0.067833982  0.067833982 
      2.4975      405        2      1000000    524.78652            0  0.067833982  0.067833982            0            0  0.067833982  0.067833982 
       2.497      406        2      1000000    524.78652            0  0.067833982  0.067833982            0            0  0.067833982  0.067833982 
      2.4965      407        2      1000000    524.78652            0  0.067833982  0.067833982            0            0  0.067833982  0.067833982 
       2.496      408        2      1000000    524.78652            0  0.067833982  0.067833982            0            0  0.067833982  0.067833982 
      2.4955      409        2      1000000    524.78652            0  0.067833982  0.067833982            0            0  0.067833982  0.067833982 
       2.495      410        2      1000000    524.78652            0  0.067833982  0.067833982            0            0  0.067833982  0.067833982 
      2.4945      411        2      1000000    524.78652            0  0.067833982  0.067833982            0            0  0.067833982  0.067833982 
       2.494      412        2      1000000    524.78652            0  0.067833982  0.067833982            0            0  0.067833982  0.067833982 
      2.4935      413        2      1000000    524.78652            0  0.067833982  0.067833982            0            0  0.067833982  0.067833982 
       2.493      414        2      1000000    524.78652            0  0.067833982  0.067833982            0            0  0.067833982  0.067833982 
      2.4925      415        2      1000000    524.78652            0  0.067833982  0.067833982            0            0  0.067833982  0.067833982 
       2.492      416        2      1000000    524.78652            0  0.067833982  0.067833982            0            0  0.067833982  0.067833982 
      2.4915      417        2      1000000    524.78652            0  0.067833982  0.067833982            0            0  0.067833982  0.067833982 
       2.491      418        2      1000000    524.78652            0  0.067833982  0.067833982            0            0  0.067833982  0.067833982 
      2.4905      419        2      1000000    524.78652            0  0.067833982  0.067833982            0            0  0.067833982  0.067833982 
        2.49      420        2      1000000    524.78652            0  0.067833982  0.067833982            0            0  0.067833982  0.067833982 
      2.4895      421        2      1000000    524.78652            0  0.067833982  0.067833982            0            0  0.067833982  0.067833982 
       2.489      422        2      1000000    524.78652            0  0.067833982  0.067833982            0            0  0.067833982  0.067833982 
      2.4885      423        2      1000000    524.78652            0  0.067833982  0.067833982            0            0  0.067833982  0.067833982 
       2.488      424        2      1000000    524.78652            0  0.067833982  0.067833982            0            0  0.067833982  0.067833982 
      2.4875      425        2      1000000    524.78652            0  0.067833982  0.067833982            0            0  0.067833982  0.067833982 
       2.487      426        2      1000000    524.78652            0  0.067833982  0.067833982            0            0  0.067833982  0.067833982 
      2.4865      427        2      1000000    524.78652            0  0.067833982  0.067833982            0            0  0.067833982  0.067833982 
       2.486      428        2      1000000    524.78652            0  0.067833982  0.067833982            0            0  0.067833982  0.067833982 
      2.4855      429        2      1000000    524.78652            0  0.067833982  0.067833982            0            0  0.067833982  0.067833982 
       2.485      430        2      1000000    524.78652            0  0.067833982  0.067833982            0            0  0.067833982  0.067833982 
      2.4845      431        2      1000000    524.78652            0  0.067833982  0.067833982            0            0  0.067833982  0.067833982 
       2.484      432        2      1000000    524.78652            0  0.067833982  0.067833982            0            0  0.067833982  0.067833982 
      2.4835      433        2      1000000    524.78652            0  0.067833982  0.067833982            0            0  0.067833982  0.067833982 
       2.483      434        2      1000000    524.78652            0  0.067833982  0.067833982            0            0  0.067833982  0.067833982 
      2.4825      435        2      1000000    524.78652            0  0.067833982  0.067833982            0            0  0.067833982  0.067833982 
       2.482      436        2      1000000    524.78652            0  0.067833982  0.067833982            0            0  0.067833982  0.067833982 
      2.4815      437        2      1000000    524.78652            0  0.067833982  0.067833982            0            0  0.067833982  0.067833982 
       2.481      438        2      1000000    524.78652            0  0.067833982  0.067833982            0            0  0.067833982  0.067833982 
      2.4805      439        2      1000000    524.78652            0  0.067833982  0.067833982            0            0  0.067833982  0.067833982 
        2.48      440        2      1000000    524.78652            0  0.067833982  0.067833982            0            0  0.067833982  0.067833982 
      2.4795      441        2      1000000    524.78652            0  0.067833982  0.067833982            0            0  0.067833982  0.067833982 
       2.479      442        2      1000000    524.78652            0  0.067833982  0.067833982            0            0  0.067833982  0.067833982 
      2.4785      443        2      1000000    524.78652            0  0.067833982  0.067833982            0            0  0.067833982  0.067833982 
       2.478      444        2      1000000    524.78652            0  0.067833982  0.067833982            0            0  0.067833982  0.067833982 
      2.4775      445        2      1000000    524.78652            0  0.067833982  0.067833982            0            0  0.067833982  0.067833982 
       2.477      446        2      1000000    524.78652            0  0.067833982  0.067833982            0            0  0.067833982  0.067833982 
      2.4765      447        2      1000000    524.78652            0  0.067833982  0.067833982            0            0  0.067833982  0.067833982 
       2.476      448        2      1000000    524.78652            0  0.067833982  0.067833982            0            0  0.067833982  0.067833982 
      2.4755      449        2      1000000    524.78652            0  0.067833982  0.067833982            0            0  0.067833982  0.067833982 
       2.475      450        2      1000000    524.78652            0  0.067833982  0.067833982            0            0  0.067833982  0.067833982 
      2.4745      451        2      1000000    524.78652            0  0.067833982  0.067833982            0            0  0.067833982  0.067833982 
       2.474      452        2      1000000    524.78652            0  0.067833982  0.067833982            0            0  0.067833982  0.067833982 
      2.4735      453        2      1000000    524.78652            0  0.067833982  0.067833982            0            0  0.067833982  0.067833982 
       2.473      454        2      1000000    524.78652            0  0.067833982  0.067833982            0            0  0.067833982  0.067833982 
      2.4725      455        2      1000000    524.78652            0  0.067833982  0.067833982            0            0  0.067833982  0.067833982 
       2.472      456        2      1000000    524.78652            0  0.067833982  0.067833982            0            0  0.067833982  0.067833982 
      2.4715      457        2      1000000    524.78652            0  0.067833982  0.067833982            0            0  0.067833982  0.067833982 
       2.471      458        2      1000000    524.78652            0  0.067833982  0.067833982            0            0  0.067833982  0.067833982 
      2.4705      459        2      1000000    524.78652            0  0.067833982  0.067833982            0            0  0.067833982  0.067833982 
        2.47      460        2      1000000    524.78652            0  0.067833982  0.067833982            0            0  0.067833982  0.067833982 
      2.4695      461        2      1000000    524.78652            0  0.067833982  0.067833982            0            0  0.067833982  0.067833982 
       2.469      462        2      1000000    524.78652            0  0.067833982  0.067833982            0            0  0.067833982  0.067833982 
      2.4685      463        2      1000000    524.78652            0  0.067833982  0.067833982            0            0  0.067833982  0.067833982 
       2.468      464        2      1000000    524.78652            0  0.067833982  0.067833982            0            0  0.067833982  0.067833982 
      2.4675      465        2      1000000    524.78652            0  0.067833982  0.067833982            0            0  0.067833982  0.067833982 
       2.467      466        2      1000000    524.78652            0  0.067833982  0.067833982            0            0  0.067833982  0.067833982 
      2.4665      467        2      1000000    524.78652            0  0.067833982  0.067833982            0            0  0.067833982  0.067833982 
       2.466      468        2      1000000    524.78652            0  0.067833982  0.067833982            0            0  0.067833982  0.067833982 
      2.4655      469        2      1000000    524.78652            0  0.067833982  0.067833982            0            0  0.067833982  0.067833982 
       2.465      470        2      1000000    524.78652            0  0.067833982  0.067833982            0            0  0.067833982  0.067833982 
      2.4645      471        2      1000000    524.78652            0  0.067833982  0.067833982            0            0  0.067833982  0.067833982 
       2.464      472        2      1000000    524.78652            0  0.067833982  0.067833982            0            0  0.067833982  0.067833982 
      2.4635      473        2      1000000    524.78652            0  0.067833982  0.067833982            0            0  0.067833982  0.067833982 
       2.463      474        2      1000000    524.78652            0  0.067833982  0.067833982            0            0  0.067833982  0.067833982 
      2.4625      475        2      1000000    524.78652            0  0.067833982  0.067833982            0            0  0.067833982  0.067833982 
       2.462      476        2      1000000    524.78652            0  0.067833982  0.067833982            0            0  0.067833982  0.067833982 
      2.4615      477        2      1000000    524.78652            0  0.067833982  0.067833982            0            0  0.067833982  0.067833982 
       2.461      478        2      1000000    524.78652            0  0.067833982  0.067833982            0            0  0.067833982  0.067833982 
      2.4605      479        2      1000000    524.78652            0  0.067833982  0.067833982            0            0  0.067833982  0.067833982 
        2.46      480        2      1000000    524.78652            0  0.067833982  0.067833982            0            0  0.067833982  0.067833982 
      2.4595      481        2      1000000    524.78652            0  0.067833982  0.067833982            0            0  0.067833982  0.067833982 
       2.459      482        2      1000000    524.78652            0  0.067833982  0.067833982            0            0  0.067833982  0.067833982 
      2.4585      483        2      1000000    524.78652            0  0.067833982  0.067833982            0            0  0.067833982  0.067833982 
       2.458      484        2      1000000    524.78652            0  0.067833982  0.067833982            0            0  0.067833982  0.067833982 
      2.4575      485        2      1000000    524.78652            0  0.067833982  0.067833982            0            0  0.067833982  0.067833982 
       2.457      486        2      1000000    524.78652            0  0.067833982  0.067833982            0            0  0.067833982  0.067833982 
      2.4565      487        2      1000000    524.78652            0  0.067833982  0.067833982            0            0  0.067833982  0.067833982 
       2.456      488        2      1000000    524.78652            0  0.067833982  0.067833982            0            0  0.067833982  0.067833982 
      2.4555      489        2      1000000    524.78652            0  0.067833982  0.067833982            0            0  0.067833982  0.067833982 
       2.455      490        2      1000000    524.78652            0  0.067833982  0.067833982            0            0  0.067833982  0.067833982 
      2.4545      491        2      1000000    524.78652            0  0.067833982  0.067833982            0            0  0.067833982  0.067833982 
       2.454      492        2      1000000    524.78652            0  0.067833982  0.067833982            0            0  0.067833982  0.067833982 
      2.4535      493        2      1000000    524.78652            0  0.067833982  0.067833982            0            0  0.067833982  0.067833982 
       2.453      494        2      1000000    524.78652            0  0.067833982  0.067833982            0            0  0.067833982  0.067833982 
      2.4525      495        2      1000000    524.78652            0  0.067833982  0.067833982            0            0  0.067833982  0.067833982 
       2.452      496        2      1000000    524.78652            0  0.067833982  0.067833982            0            0  0.067833982  0.067833982 
      2.4515      497        2      1000000    524.78652            0  0.067833982  0.067833982            0            0  0.067833982  0.067833982 
       2.451      498        2      1000000    524.78652            0  0.067833982  0.067833982            0            0  0.067833982  0.067833982 
      2.4505      499        2      1000000    524.78652            0  0.067833982  0.067833982            0            0  0.067833982  0.067833982 
        2.45      500        2      1000000    524.78652            0  0.067833982  0.067833982            0            0  0.067833982  0.067833982 
      2.4495      501        2      1000000    524.78652            0  0.067833982  0.067833982            0            0  0.067833982  0.067833982 
       2.449      502        2      1000000    524.78652            0  0.067833982  0.067833982            0            0  0.067833982  0.067833982 
      2.4485      503        2      1000000    524.78652            0  0.067833982  0.067833982            0            0  0.067833982  0.067833982 
       2.448      504        2      1000000    524.78652            0  0.067833982  0.067833982            0            0  0.067833982  0.067833982 
      2.4475      505        2      1000000    524.78652            0  0.067833982  0.067833982            0            0  0.067833982  0.067833982 
       2.447      506        2      1000000    524.78652            0  0.067833982  0.067833982            0            0  0.067833982  0.067833982 
      2.4465      507        2      1000000    524.78652            0  0.067833982  0.067833982            0            0  0.067833982  0.067833982 
       2.446      508        2      1000000    524.78652            0  0.067833982  0.067833982            0            0  0.067833982  0.067833982 
      2.4455      509        2      1000000    524.78652            0  0.067833982  0.067833982            0            0  0.067833982  0.067833982 
       2.445      510        2      1000000    524.78652            0  0.067833982  0.067833982            0            0  0.067833982  0.067833982 
      2.4445      511        2      1000000    524.78652            0  0.067833982  0.067833982            0            0  0.067833982  0.067833982 
       2.444      512        2      1000000    524.78652            0  0.067833982  0.067833982            0            0  0.067833982  0.067833982 
      2.4435      513        2      1000000    524.78652            0  0.067833982  0.067833982            0            0  0.067833982  0.067833982 
       2.443      514        2      1000000    524.78652            0  0.067833982  0.067833982            0            0  0.067833982  0.067833982 
      2.4425      515        2      1000000    524.78652            0  0.067833982  0.067833982            0            0  0.067833982  0.067833982 
       2.442      516        2      1000000    524.78652            0  0.067833982  0.067833982            0            0  0.067833982  0.067833982 
      2.4415      517        2      1000000    524.78652            0  0.067833982  0.067833982            0            0  0.067833982  0.067833982 
       2.441      518        2      1000000    524.78652            0  0.067833982  0.067833982            0            0  0.067833982  0.067833982 
      2.4405      519        2      1000000    524.78652            0  0.067833982  0.067833982            0            0  0.067833982  0.067833982 
        2.44      520        2      1000000    524.78652            0  0.067833982  0.067833982            0            0  0.067833982  0.067833982 
      2.4395      521        2      1000000    524.78652            0  0.067833982  0.067833982            0            0  0.067833982  0.067833982 
       2.439      522        2      1000000    524.78652            0  0.067833982  0.067833982            0            0  0.067833982  0.067833982 
[...]
   2.1984104     5875        2      1000000    510.50134            0  0.065987477  0.065987477            0            0  0.065987477  0.065987477 
   2.1988966     5876        2      1000000    510.50134            0  0.065987477  0.065987477            0            0  0.065987477  0.065987477 
   2.1993828     5877        2      1000000    510.50134            0  0.065987477  0.065987477            0            0  0.065987477  0.065987477 
    2.199869     5878        2      1000000    510.50134            0  0.065987477  0.065987477            0            0  0.065987477  0.065987477 
   2.2003552     5879        2      1000000    510.50134            0  0.065987477  0.065987477            0            0  0.065987477  0.065987477 
   2.2008414     5880        2      1000000    510.50134            0  0.065987477  0.065987477            0            0  0.065987477  0.065987477 
   2.2013276     5881        2      1000000    510.50134            0  0.065987477  0.065987477            0            0  0.065987477  0.065987477 
   2.2018138     5882        2      1000000    510.50134            0  0.065987477  0.065987477            0            0  0.065987477  0.065987477 
      2.2023     5883        2      1000000    510.50134            0  0.065987477  0.065987477            0            0  0.065987477  0.065987477 
   2.2027862     5884        2      1000000    510.50134            0  0.065987477  0.065987477            0            0  0.065987477  0.065987477 
   2.2032724     5885        2      1000000    510.50134            0  0.065987477  0.065987477            0            0  0.065987477  0.065987477 
   2.2037586     5886        2      1000000    510.50134            0  0.065987477  0.065987477            0            0  0.065987477  0.065987477 
   2.2042448     5887        2      1000000    510.50134            0  0.065987477  0.065987477            0            0  0.065987477  0.065987477 
    2.204731     5888        2      1000000    510.50134            0  0.065987477  0.065987477            0            0  0.065987477  0.065987477 
   2.2052172     5889        2      1000000    510.50134            0  0.065987477  0.065987477            0            0  0.065987477  0.065987477 
   2.2057034     5890        2      1000000    510.50134            0  0.065987477  0.065987477            0            0  0.065987477  0.065987477 
   2.2061896     5891        2      1000000    510.50134            0  0.065987477  0.065987477            0            0  0.065987477  0.065987477 
   2.2066758     5892        2      1000000    510.50134            0  0.065987477  0.065987477            0            0  0.065987477  0.065987477 
   2.2071619     5893        2      1000000    510.50134            0  0.065987477  0.065987477            0            0  0.065987477  0.065987477 
   2.2076481     5894        2      1000000    510.50134            0  0.065987477  0.065987477            0            0  0.065987477  0.065987477 
   2.2081343     5895        2      1000000    510.50134            0  0.065987477  0.065987477            0            0  0.065987477  0.065987477 
   2.2086205     5896        2      1000000    510.50134            0  0.065987477  0.065987477            0            0  0.065987477  0.065987477 
   2.2091067     5897        2      1000000    510.50134            0  0.065987477  0.065987477            0            0  0.065987477  0.065987477 
   2.2095929     5898        2      1000000    510.50134            0  0.065987477  0.065987477            0            0  0.065987477  0.065987477 
   2.2100791     5899        2      1000000    510.50134            0  0.065987477  0.065987477            0            0  0.065987477  0.065987477 
   2.2105653     5900        2      1000000    510.50134            0  0.065987477  0.065987477            0            0  0.065987477  0.065987477 
   2.2110515     5901        2      1000000    510.50134            0  0.065987477  0.065987477            0            0  0.065987477  0.065987477 
   2.2115377     5902        2      1000000    510.50134            0  0.065987477  0.065987477            0            0  0.065987477  0.065987477 
   2.2120239     5903        2      1000000    510.50134            0  0.065987477  0.065987477            0            0  0.065987477  0.065987477 
   2.2125101     5904        2      1000000    510.50134            0  0.065987477  0.065987477            0            0  0.065987477  0.065987477 
   2.2129963     5905        2      1000000    510.50134            0  0.065987477  0.065987477            0            0  0.065987477  0.065987477 
   2.2134825     5906        2      1000000    510.50134            0  0.065987477  0.065987477            0            0  0.065987477  0.065987477 
   2.2139687     5907        2      1000000    510.50134            0  0.065987477  0.065987477            0            0  0.065987477  0.065987477 
   2.2144549     5908        2      1000000    510.50134            0  0.065987477  0.065987477            0            0  0.065987477  0.065987477 
   2.2149411     5909        2      1000000    510.50134            0  0.065987477  0.065987477            0            0  0.065987477  0.065987477 
   2.2154273     5910        2      1000000    510.50134            0  0.065987477  0.065987477            0            0  0.065987477  0.065987477 
   2.2159135     5911        2      1000000    510.50134            0  0.065987477  0.065987477            0            0  0.065987477  0.065987477 
   2.2163997     5912        2      1000000    510.50134            0  0.065987477  0.065987477            0            0  0.065987477  0.065987477 
   2.2168859     5913        2      1000000    510.50134            0  0.065987477  0.065987477            0            0  0.065987477  0.065987477 
   2.2173721     5914        2      1000000    510.50134            0  0.065987477  0.065987477            0            0  0.065987477  0.065987477 
   2.2178583     5915        2      1000000    510.50134            0  0.065987477  0.065987477            0            0  0.065987477  0.065987477 
   2.2183445     5916        2      1000000    510.50134            0  0.065987477  0.065987477            0            0  0.065987477  0.065987477 
   2.2188307     5917        2      1000000    510.50134            0  0.065987477  0.065987477            0            0  0.065987477  0.065987477 
   2.2193169     5918        2      1000000    510.50134            0  0.065987477  0.065987477            0            0  0.065987477  0.065987477 
   2.2198031     5919        2      1000000    510.50134            0  0.065987477  0.065987477            0            0  0.065987477  0.065987477 
   2.2202893     5920        2      1000000    510.50134            0  0.065987477  0.065987477            0            0  0.065987477  0.065987477 
   2.2207755     5921        2      1000000    510.50134            0  0.065987477  0.065987477            0            0  0.065987477  0.065987477 
   2.2212617     5922        2      1000000    510.50134            0  0.065987477  0.065987477            0            0  0.065987477  0.065987477 
   2.2217479     5923        2      1000000    510.50134            0  0.065987477  0.065987477            0            0  0.065987477  0.065987477 
   2.2222341     5924        2      1000000    510.50134            0  0.065987477  0.065987477            0            0  0.065987477  0.065987477 
   2.2227203     5925        2      1000000    510.50134            0  0.065987477  0.065987477            0            0  0.065987477  0.065987477 
   2.2232065     5926        2      1000000    510.50134            0  0.065987477  0.065987477            0            0  0.065987477  0.065987477 
   2.2236927     5927        2      1000000    510.50134            0  0.065987477  0.065987477            0            0  0.065987477  0.065987477 
   2.2241789     5928        2      1000000    510.50134            0  0.065987477  0.065987477            0            0  0.065987477  0.065987477 
   2.2246651     5929        2      1000000    510.50134            0  0.065987477  0.065987477            0            0  0.065987477  0.065987477 
   2.2251513     5930        2      1000000    510.50134            0  0.065987477  0.065987477            0            0  0.065987477  0.065987477 
   2.2256375     5931        2      1000000    510.50134            0  0.065987477  0.065987477            0            0  0.065987477  0.065987477 
   2.2261237     5932        2      1000000    510.50134            0  0.065987477  0.065987477            0            0  0.065987477  0.065987477 
   2.2266099     5933        2      1000000    510.50134            0  0.065987477  0.065987477            0            0  0.065987477  0.065987477 
   2.2270961     5934        2      1000000    510.50134            0  0.065987477  0.065987477            0            0  0.065987477  0.065987477 
   2.2275823     5935        2      1000000    510.50134            0  0.065987477  0.065987477            0            0  0.065987477  0.065987477 
   2.2280685     5936        2      1000000    510.50134            0  0.065987477  0.065987477            0            0  0.065987477  0.065987477 
   2.2285547     5937        2      1000000    510.50134            0  0.065987477  0.065987477            0            0  0.065987477  0.065987477 
   2.2290409     5938        2      1000000    510.50134            0  0.065987477  0.065987477            0            0  0.065987477  0.065987477 
   2.2295271     5939        2      1000000    510.50134            0  0.065987477  0.065987477            0            0  0.065987477  0.065987477 
   2.2300133     5940        2      1000000    510.50134            0  0.065987477  0.065987477            0            0  0.065987477  0.065987477 
   2.2304995     5941        2      1000000    510.50134            0  0.065987477  0.065987477            0            0  0.065987477  0.065987477 
   2.2309857     5942        2      1000000    510.50134            0  0.065987477  0.065987477            0            0  0.065987477  0.065987477 
   2.2314719     5943        2      1000000    510.50134            0  0.065987477  0.065987477            0            0  0.065987477  0.065987477 
   2.2319581     5944        2      1000000    510.50134            0  0.065987477  0.065987477            0            0  0.065987477  0.065987477 
   2.2324443     5945        2      1000000    510.50134            0  0.065987477  0.065987477            0            0  0.065987477  0.065987477 
   2.2329305     5946        2      1000000    510.50134            0  0.065987477  0.065987477            0            0  0.065987477  0.065987477 
   2.2334167     5947        2      1000000    510.50134            0  0.065987477  0.065987477            0            0  0.065987477  0.065987477 
   2.2339029     5948        2      1000000    510.50134            0  0.065987477  0.065987477            0            0  0.065987477  0.065987477 
   2.2343891     5949        2      1000000    510.50134            0  0.065987477  0.065987477            0            0  0.065987477  0.065987477 
   2.2348753     5950        2      1000000    510.50134            0  0.065987477  0.065987477            0            0  0.065987477  0.065987477 
   2.2353615     5951        2      1000000    510.50134            0  0.065987477  0.065987477            0            0  0.065987477  0.065987477 
   2.2358477     5952        2      1000000    510.50134            0  0.065987477  0.065987477            0            0  0.065987477  0.065987477 
   2.2363339     5953        2      1000000    510.50134            0  0.065987477  0.065987477            0            0  0.065987477  0.065987477 
   2.2368201     5954        2      1000000    510.50134            0  0.065987477  0.065987477            0            0  0.065987477  0.065987477 
   2.2373063     5955        2      1000000    510.50134            0  0.065987477  0.065987477            0            0  0.065987477  0.065987477 
   2.2377925     5956        2      1000000    510.50134            0  0.065987477  0.065987477            0            0  0.065987477  0.065987477 
   2.2382787     5957        2      1000000    510.50134            0  0.065987477  0.065987477            0            0  0.065987477  0.065987477 
   2.2387649     5958        2      1000000    510.50134            0  0.065987477  0.065987477            0            0  0.065987477  0.065987477 
   2.2392511     5959        2      1000000    510.50134            0  0.065987477  0.065987477            0            0  0.065987477  0.065987477 
   2.2397373     5960        2      1000000    510.50134            0  0.065987477  0.065987477            0            0  0.065987477  0.065987477 
   2.2402235     5961        2      1000000    510.50134            0  0.065987477  0.065987477            0            0  0.065987477  0.065987477 
   2.2407097     5962        2      1000000    510.50134            0  0.065987477  0.065987477            0            0  0.065987477  0.065987477 
   2.2411959     5963        2      1000000    510.50134            0  0.065987477  0.065987477            0            0  0.065987477  0.065987477 
   2.2416821     5964        2      1000000    510.50134            0  0.065987477  0.065987477            0            0  0.065987477  0.065987477 
   2.2421683     5965        2      1000000    510.50134            0  0.065987477  0.065987477            0            0  0.065987477  0.065987477 
   2.2426545     5966        2      1000000    510.50134            0  0.065987477  0.065987477            0            0  0.065987477  0.065987477 
   2.2431407     5967        2      1000000    510.50134            0  0.065987477  0.065987477            0            0  0.065987477  0.065987477 
   2.2436269     5968        2      1000000    510.50134            0  0.065987477  0.065987477            0            0  0.065987477  0.065987477 
   2.2441131     5969        2      1000000    510.50134            0  0.065987477  0.065987477            0            0  0.065987477  0.065987477 
   2.2445993     5970        2      1000000    510.50134            0  0.065987477  0.065987477            0            0  0.065987477  0.065987477 
   2.2450855     5971        2      1000000    510.50134            0  0.065987477  0.065987477            0            0  0.065987477  0.065987477 
   2.2455717     5972        2      1000000    510.50134            0  0.065987477  0.065987477            0            0  0.065987477  0.065987477 
   2.2460579     5973        2      1000000    510.50134            0  0.065987477  0.065987477            0            0  0.065987477  0.065987477 
   2.2465441     5974        2      1000000    510.50134            0  0.065987477  0.065987477            0            0  0.065987477  0.065987477 
   2.2470303     5975        2      1000000    510.50134            0  0.065987477  0.065987477            0            0  0.065987477  0.065987477 
   2.2475165     5976        2      1000000    510.50134            0  0.065987477  0.065987477            0            0  0.065987477  0.065987477 
   2.2480027     5977        2      1000000    510.50134            0  0.065987477  0.065987477            0            0  0.065987477  0.065987477 
   2.2484889     5978        2      1000000    510.50134            0  0.065987477  0.065987477            0            0  0.065987477  0.065987477 
   2.2489751     5979        2      1000000    510.50134            0  0.065987477  0.065987477            0            0  0.065987477  0.065987477 
   2.2494613     5980        2      1000000    510.50134            0  0.065987477  0.065987477            0            0  0.065987477  0.065987477 
   2.2499475     5981        2      1000000    510.50134            0  0.065987477  0.065987477            0            0  0.065987477  0.065987477 
   2.2504337     5982        2      1000000    510.50134            0  0.065987477  0.065987477            0            0  0.065987477  0.065987477 
   2.2509199     5983        2      1000000    510.50134            0  0.065987477  0.065987477            0            0  0.065987477  0.065987477 
   2.2514061     5984        2      1000000    510.50134            0  0.065987477  0.065987477            0            0  0.065987477  0.065987477 
   2.2518923     5985        2      1000000    510.50134            0  0.065987477  0.065987477            0            0  0.065987477  0.065987477 
   2.2523785     5986        2      1000000    510.50134            0  0.065987477  0.065987477            0            0  0.065987477  0.065987477 
   2.2528647     5987        2      1000000    510.50134            0  0.065987477  0.065987477            0            0  0.065987477  0.065987477 
   2.2533509     5988        2      1000000    510.50134            0  0.065987477  0.065987477            0            0  0.065987477  0.065987477 
   2.2538371     5989        2      1000000    510.50134            0  0.065987477  0.065987477            0            0  0.065987477  0.065987477 
   2.2543233     5990        2      1000000    510.50134            0  0.065987477  0.065987477            0            0  0.065987477  0.065987477 
   2.2548095     5991        2      1000000    510.50134            0  0.065987477  0.065987477            0            0  0.065987477  0.065987477 
   2.2552957     5992        2      1000000    510.50134            0  0.065987477  0.065987477            0            0  0.065987477  0.065987477 
   2.2557819     5993        2      1000000    510.50134            0  0.065987477  0.065987477            0            0  0.065987477  0.065987477 
   2.2562681     5994        2      1000000    510.50134            0  0.065987477  0.065987477            0            0  0.065987477  0.065987477 
   2.2567543     5995        2      1000000    510.50134            0  0.065987477  0.065987477            0            0  0.065987477  0.065987477 
   2.2572405     5996        2      1000000    510.50134            0  0.065987477  0.065987477            0            0  0.065987477  0.065987477 
   2.2577267     5997        2      1000000    510.50134            0  0.065987477  0.065987477            0            0  0.065987477  0.065987477 
   2.2582129     5998        2      1000000    510.50134            0  0.065987477  0.065987477            0            0  0.065987477  0.065987477 
   2.2586991     5999        2      1000000    510.50134            0  0.065987477  0.065987477            0            0  0.065987477  0.065987477 
   2.2591852     6000        2      1000000    510.50134            0  0.065987477  0.065987477            0            0  0.065987477  0.065987477 
Loop time of 0.398957 on 1 procs for 6000 steps with 2 atoms

Performance: 12.994 ns/day, 1.847 hours/ns, 15039.196 timesteps/s
30.5% CPU use with 1 MPI tasks x no OpenMP threads

MPI task timing breakdown:
Section |  min time  |  avg time  |  max time  |%varavg| %total
---------------------------------------------------------------
Pair    | 0.0013938  | 0.0013938  | 0.0013938  |   0.0 |  0.35
Neigh   | 3.5763e-06 | 3.5763e-06 | 3.5763e-06 |   0.0 |  0.00
Comm    | 0.001689   | 0.001689   | 0.001689   |   0.0 |  0.42
Output  | 0.39033    | 0.39033    | 0.39033    |   0.0 | 97.84
Modify  | 0.0017467  | 0.0017467  | 0.0017467  |   0.0 |  0.44
Other   |            | 0.003795   |            |       |  0.95

Nlocal:        2.00000 ave           2 max           2 min
Histogram: 1 0 0 0 0 0 0 0 0 0
Nghost:         0.00000 ave           0 max           0 min
Histogram: 1 0 0 0 0 0 0 0 0 0
Neighs:        1.00000 ave           1 max           1 min
Histogram: 1 0 0 0 0 0 0 0 0 0

Total # of neighbors = 1
Ave neighs/atom = 0.50000000
Neighbor list builds = 2
Dangerous builds = 0
Total wall time: 0:00:00
